;
; Topology prepared automatically using PyCGTOOL
; James Graham <J.A.Graham@soton.ac.uk> 2016
; University of Southampton
; https://github.com/jag1g13/pycgtool
;

[ moleculetype ]
10FG    1

[ atoms ]
   1 SN4a    1 10FG IMI1    1    0.000   54
   2 SP3     1 10FG AMD1    2    0.000   54
   3 TC5e    1 10FG ARO1    3    0.000   0
   4 TN4     1 10FG AMN1    4    0.000   36
   5 TN4     1 10FG AMN2    5    0.000   36
   6 TN3a    1 10FG AMN3    6    0.000   36
   7 TN5a    1 10FG CO1     7    0.000   36
   8 TC5     1 10FG ARO2    8    0.000   36
   9 TC5     1 10FG ARO3    9    0.000   36
  10 TC5     1 10FG ARO4   10    0.000   36
  11 SP3     1 10FG AMD2   11    0.000   54
  12 SC2     1 10FG C1     12    0.000   54
  13 SQ5n    1 10FG CAC1   13   -1.000   54 
  14 SP3     1 10FG AMD3   14    0.000   54
  15 SC2     1 10FG C2     15    0.000   54
  16 SQ5n    1 10FG CAC2   16   -1.000   54
  17 SP3     1 10FG AMD4   17    0.000   54
  18 SC2     1 10FG C3     18    0.000   54
  19 SQ5n    1 10FG CAC3   19   -1.000   54
  20 SQ5n    1 10FG CAC4   20   -1.000   54

[ bonds ]
  10   11    1      0.360   7500 ; ARO4_AMD2
  11   12    1      0.273   7396 ; AMD2_C1
  12   13    1      0.295   5000 ; C1_CAC1
  12   14    1      0.279  10290 ; C1_AMD3
  14   15    1      0.272   8269 ; AMD3_C2
  15   16    1      0.296   5000 ; C2_CAC2
  15   17    1      0.280  10734 ; C2_AMD4
  17   18    1      0.279   5582 ; AMD4_C3
  18   19    1      0.285   4399 ; C3_CAC3
; changed from constraints
   5    6    1      0.232  50000 ; AMN2_AMN3
  18   20    1      0.279  20000 ; C3_CAC4
   2    5    1      0.414  50000 ; AMD1_AMN2
   1    4    1      0.493  50000 ; IMI1_AMN1
   6    8    1      0.331  50000 ; AMN3_ARO2

#ifdef FLEXIBLE
   1    2    1      0.286  10000 ; IMI1_AMD1
   2    4    1      0.493  10000 ; AMD1_AMN1
   4    5    1      0.277  10000 ; AMN1_AMN2
   6    7    1      0.259  10000 ; AMN3_CO1
   8    9    1      0.221  10000 ; ARO2_ARO3
   8   10    1      0.302  10000 ; ARO2_ARO4
   9   10    1      0.301  10000 ; ARO3_ARO4
#endif

[ angles ]
   5    6    8    2    103     30 ; AMN2_AMN3_ARO2
   6    8    9    2    137   2500 ; AMN3_ARO2_ARO3
   9   10   11    2     45    500 ; ARO3_ARO4_AMD2
   5    6    7    2    114     22 ; AMN2_AMN3_CO1
  10   11   12    2    136     50 ; ARO4_AMD2_C1
  11   12   13    2     78    175 ; AMD2_C1_CAC1
  13   12   14    2    132     75 ; CAC1_C1_AMD3
  12   14   15    2    150    125 ; C1_AMD3_C2
  14   15   16    2     74    175 ; AMD3_C2_CAC2
  16   15   17    2    137     85 ; CAC2_C2_AMD4
  15   17   18    2    152    160 ; C2_AMD4_C3
  17   18   19    2     75    111 ; AMD4_C3_CAC3
  17   18   20    2    138     75 ; AMD4_C3_CAC4

[ dihedrals ]
   2    1    5    4    2    -175     37    ; AMD1_IMI1_AMN2_AMN1

[ constraints ]
#ifndef FLEXIBLE
   1    2    1      0.286 ; IMI1_AMD1
   2    4    1      0.493 ; AMD1_AMN1
   4    5    1      0.277 ; AMN1_AMN2
   6    7    1      0.259 ; AMN3_CO1
   8    9    1      0.221 ; ARO2_ARO3
   8   10    1      0.302 ; ARO2_ARO4
   9   10    1      0.301 ; ARO3_ARO4
#endif

[ virtual_sitesn ]
3 1 1 2 4 5

[ exclusions ]
1 2 3 4 5
2 3 4 5
3 4 5
4 5
8 9 10 
9 10 11
6 7 8
7 6 8
8 6 7
10 11 12
11 12 13
12 13 14
13 14 15
14 15 16
15 16 17
16 17 18
17 18 19 20
18 19 20
;
; Topology prepared automatically using PyCGTOOL
; James Graham <J.A.Graham@soton.ac.uk> 2016
; University of Southampton
; https://github.com/jag1g13/pycgtool
;

[ moleculetype ]
10MG    1

[ atoms ]
   1 SN4a    1 10MG IMI1    1    0.000  54
   2 SP3     1 10MG AMD1    2    0.000  54
   3 TC5e    1 10MG ARO1    3    0.000  0
   4 TN4     1 10MG AMN1    4    0.000  36
   5 SN3a    1 10MG AMN2    5    0.000  54
   6 TQ3p    1 10MG AMC1    6    1.000  36
   7 TC5     1 10MG ARO2    7    0.000  36
   8 TC5     1 10MG ARO3    8    0.000  36
   9 TC5     1 10MG ARO4    9    0.000  36
  10 SP3     1 10MG AMD2   10    0.000  54
  11 SC2     1 10MG C1     11    0.000  54
  12 SQ5n    1 10MG CAC1   12   -1.000  54
  13 SP3     1 10MG AMD3   13    0.000  54
  14 SC2     1 10MG C2     14    0.000  54
  15 SQ5n    1 10MG CAC2   15   -1.000  54
  16 SP3     1 10MG AMD4   16    0.000  54
  17 SC2     1 10MG C3     17    0.000  54
  18 SQ5n    1 10MG CAC3   18   -1.000  54
  19 SQ5n    1 10MG CAC4   19   -1.000  54

[ bonds ]
   9   10    1      0.253  15000
  10   11    1      0.274   7209
  11   12    1      0.288   5000
  11   13    1      0.279   9455
  13   14    1      0.273   7853
  14   15    1      0.293   4848
  14   16    1      0.280  10557
  16   17    1      0.280   5601
  17   18    1      0.286   4395
;changed from constraints
  17   19    1      0.280  25000
   1    4    1      0.497  25000

[ angles ]
   5    6    7    2    119   1500
   6    7    8    2    107   1500
   8    9   10    2     70   1000
   9   10   11    2    152     50
  10   11   12    2     80    125
  12   11   13    2    130     94
  11   13   14    2    153    100
  13   14   15    2     75    150
  15   14   16    2    135     75
  13   17   16    2     27    200
  14   16   17    2    153    150
  16   17   18    2     75    113
  16   17   19    2    150     65

[ dihedrals ]
   2    1    5    4    2     160    73    ;1

[ constraints ]
;   1    4    1      0.497
   1    2    1      0.286
   2    5    1      0.515
   2    4    1      0.497
   4    5    1      0.272
   5    6    1      0.229
   6    7    1      0.213
   7    8    1      0.301
   7    9    1      0.222
   8    9    1      0.301

[ virtual_sitesn ]
3 1 1 2 4 5

[ exclusions ]
1 2 3 4 5
2 3 4 5
3 4 5
4 5
7 8 9 
8 9
9 10 11
10 11 12
11 12 13
12 13 14
13 14 15
14 15 16
15 16 17
16 17 18
17 18 19
; This file was generated using the following command:
; /coarse/chris/python_packages/fast_forward/.venv/bin/ff_inter -f ../mapped.xtc -s ../mapped.tpr -i 1MNA.itp -plots -dists -max-dihedral 5
; 

; Please cite the following papers:
; Kroon, P C; Grunewald, F; Barnoud, J; van Tilburg, M; Souza, P C; Wassenaar, T A; Marrink, S J;  elife 2024; 10.7554/elife.90627.2
; Brasnett, C; Grunewald, L; Wassenaar, T A; Marrink, S J; Grunewald, F;  2025; https://zenodo.org/badge/latestdoi/327071500

[ moleculetype ]
1MNA 1

[ atoms ]
1 TN4  1 1MNA AMD1 1 0.0 54.0
2 TN5a 1 1MNA CO1  2 0.0 36.0
3 TC5  1 1MNA ARO1 3 0.0 36.0
4 TC5  1 1MNA ARO2 4 0.0 36.0
5 TN6a 1 1MNA ARO3 5 0.0 36.0

[ bonds ]
#ifdef FLEXIBLE
1 2 1 0.238 10000 ; AMD1_CO1
2 3 1 0.221 10000 ; CO1_ARO1
3 4 1 0.183 10000 ; ARO1_ARO2
4 5 1 0.204 10000 ; ARO2_ARO3
5 3 1 0.199 10000 ; ARO3_ARO1
#endif

[ constraints ]
#ifndef FLEXIBLE
1 2 1 0.238 ; AMD1_CO1
2 3 1 0.221 ; CO1_ARO1
3 4 1 0.183 ; ARO1_ARO2
4 5 1 0.204 ; ARO2_ARO3
5 3 1 0.199 ; ARO3_ARO1
#endif

[ angles ]
1 2 3 1 110.638 400 ; AMD1_CO1_ARO1
2 3 4 1 131.62 300  ; CO1_ARO1_ARO2
2 3 5 1 161.406 300 ; CO1_ARO1_ARO3

[ dihedrals ]
1 2 3 4 2 179.909 24.771 ; AMD1_CO1_ARO1_ARO2
2 3 4 5 2 179.966 46.263 ; CO1_ARO1_ARO2_ARO3

; This file was generated using the following command:
; /coarse/chris/python_packages/fast_forward/.venv/bin/ff_inter -f mapped.xtc -s mapped.tpr -i 2HG.itp -plots -dists -max-dihedral 5
; 

; Please cite the following papers:
; Brasnett, C; Grunewald, L; Wassenaar, T A; Marrink, S J; Grunewald, F;  2025; https://zenodo.org/badge/latestdoi/327071500
; Kroon, P C; Grunewald, F; Barnoud, J; van Tilburg, M; Souza, P C; Wassenaar, T A; Marrink, S J;  elife 2024; 10.7554/elife.90627.2

[ moleculetype ]
2HG 1

[ atoms ]
1 SQ5n 1 2HG CAC1 1 -1.0 
2 TP1  1 2HG ALC1 2  0.0 
3 TC1  1 2HG C1   3  0.0 
4 SQ5n 1 2HG CAC2 4 -1.0 

[ bonds ]
2 3 1 0.240 10000 ; C1_ALC1
1 2 1 0.253 10000 ; CAC1_ALC1
3 4 1 0.232 10000 ; ALC1_CAC2

[ angles ]
1 2 3 10 86.331 100 ; CAC1_ALC1_C1
2 3 4 1 161.159 50 ; ALC1_C1_CAC2

[ dihedrals ]
1 2 3 4 1 20 1 1 ; CAC1_ALC1_C1_CAC2

[ exclusions ]
1 2 3 4
2 3 4
3 4

; This file was generated using the following command:
; /coarse/chris/python_packages/fast_forward/.venv/bin/ff_inter -f mapped.xtc -s mapped.tpr -i 2PG.itp -plots -dists
; 

; Please cite the following papers:
; Kroon, P C; Grunewald, F; Barnoud, J; van Tilburg, M; Souza, P C; Wassenaar, T A; Marrink, S J;  elife 2024; 10.7554/elife.90627.2
; Brasnett, C; Grunewald, L; Wassenaar, T A; Marrink, S J; Grunewald, F;  2025; https://zenodo.org/badge/latestdoi/327071500

[ moleculetype ]
2PG 1

[ atoms ]
1 D    1 2PG P1   1 -2.0 72.0
2 SP1  1 2PG ALC1 2  0.0 54.0
3 SQ5n 1 2PG CAC1 3 -1.0 54.0

[ bonds ]
1 2 1 0.302 15000 ; P1_ALC1
2 3 1 0.279 15000 ; ALC1_CAC1

[ angles ]
1 2 3 10 91.186 500 ; P1_ALC1_CAC1

[ exclusions ]
1 2 3
2 3

; This file was generated using the following command:
; ff_inter -f mapped.xtc -s mapped.gro -i 3GPP.itp -dists -plots
;

; Please cite the following papers:
; Kroon, P C; Grunewald, F; Barnoud, J; van Tilburg, M; Souza, P C; Wassenaar, T A; Marrink, S J;  elife 2024; 10.7554/elife.90627.2
; Brasnett, C; Grunewald, L; Wassenaar, T A; Marrink, S J; Grunewald, F;  2025; https://zenodo.org/badge/latestdoi/327071500

[ moleculetype ]
3GPP 1

[ atoms ]
1 SP1  1 3GPP ALC1 1  0.0 54.0
2 D    1 3GPP P1   2 -2.0 72.0
3 TN5a 1 3GPP CO1  3  0.0 36.0
4 D    1 3GPP P2   4 -2.0 72.0

[ bonds ]
#ifdef FLEXIBLE
1 2 1 0.363 10000 ; ALC1_P1
1 3 1 0.24 10000 ; ALC1_CO1
3 4 1 0.26 10000 ; CO1_P2
#endif

[ constraints ]
#ifndef FLEXIBLE
1 2 1 0.363 ; ALC1_P1
1 3 1 0.24 ; ALC1_CO1
3 4 1 0.26 ; CO1_P2
#endif

[ angles ]
2 1 3 10 108.00 145.000 ; P1_ALC1_CO1
1 3 4 10 120.000 300.000 ; ALC1_CO1_P2

[ dihedrals ]
; P1_ALC1_CO1_P2
2 1 3 4 9 37.486 -4.7 1 ; P1_ALC1_CO1_P2
2 1 3 4 9 75.291 -3.399 2 ; P1_ALC1_CO1_P2

[ exclusions ]
1 2 3 4
2 1 3 4
3 1 2 4
4 1 2 3

; This file was generated using the following command:
; ff_inter -f mapped.xtc -s mapped.gro -i 3PG.itp -dists -plots
;

; Please cite the following papers:
; Kroon, P C; Grunewald, F; Barnoud, J; van Tilburg, M; Souza, P C; Wassenaar, T A; Marrink, S J;  elife 2024; 10.7554/elife.90627.2
; Brasnett, C; Grunewald, L; Wassenaar, T A; Marrink, S J; Grunewald, F;  2025; https://zenodo.org/badge/latestdoi/327071500

[ moleculetype ]
3PG 1

[ atoms ]
1 SP1  1 3PG ALC1 1  0.0 54.0
2 D    1 3PG P1   2 -2.0 72.0
3 SQ5n 1 3PG CAC1 3 -1.0 54.0

[ bonds ]
2 3 1 0.449 5047.637 ; P1_CAC1

#ifdef FLEXIBLE
1 2 1 0.358 10000 ; ALC1_P1
#endif

[ constraints ]
#ifndef FLEXIBLE
1 2 1 0.358 ; ALC1_P1
#endif

[ angles ]
1 2 3 10 32.564 150 ; ALC1_P1_CAC1

[ exclusions ]
1 2 3
2 1 3
3 1 2

;
; Topology prepared automatically using PyCGTOOL
; James Graham <J.A.Graham@soton.ac.uk> 2016
; University of Southampton
; https://github.com/jag1g13/pycgtool
;

[ moleculetype ]
5FG     1

[ atoms ]
   1 SN4a    1 5FG  IMI1    1    0.000  54
   2 SP3     1 5FG  AMD1    2    0.000  54
   3 TC5e    1 5FG  ARO1    3    0.000  0
   4 TN4     1 5FG  AMN1    4    0.000  36
   5 TN3a    1 5FG  AMN2    5    0.000  36
   6 TN5a    1 5FG  CO1     6    0.000  36
   7 TN4     1 5FG  AMN3    7    0.000  36
   8 TC5     1 5FG  ARO2    8    0.000  36
   9 TC5     1 5FG  ARO3    9    0.000  36
  10 TC5     1 5FG  ARO4   10    0.000  36
  11 SP3     1 5FG  AMD2   11    0.000  54
  12 SC2     1 5FG  C1     12    0.000  54
  13 SQ5n    1 5FG  CAC1   13   -1.000  54
  14 SP3     1 5FG  AMD3   14    0.000  54
  15 SC2     1 5FG  C2     15    0.000  54
  16 SQ5n    1 5FG  CAC2   16   -1.000  54
  17 SP3     1 5FG  AMD4   17    0.000  54
  18 SC2     1 5FG  C3     18    0.000  54
  19 SQ5n    1 5FG  CAC3   19   -1.000  54
  20 SQ5n    1 5FG  CAC4   20   -1.000  54

[ bonds ]
   7    8    1      0.279  10000 ; AMN3_ARO2
  10   11    1      0.244   7500 ; ARO4_AMD2
  11   12    1      0.270  10000 ; AMD2_C1
  12   13    1      0.290   5000 ; C1_CAC1
  12   14    1      0.283  10505 ; C1_AMD3
  14   15    1      0.272  10000 ; AMD3_C2
  15   16    1      0.289   5000 ; C2_CAC2
  15   17    1      0.280  10128 ; C2_AMD4
  17   18    1      0.277   7500 ; AMD4_C3
  18   19    1      0.286   5000 ; C3_CAC3
;changed from constraints
  18   20    1      0.274  50000 ; C3_CAC4
   2    4    1      0.492  50000 ; AMD1_AMN1
   5    7    1      0.224  50000 ; AMN2_AMN3
   1    4    1      0.487  50000 ; IMI1_AMN1

#ifdef FLEXIBLE
   1    2    1      0.285  10000 ; IMI1_AMD1
   2    5    1      0.452  10000 ; AMD1_AMN2
   4    5    1      0.244  10000 ; AMN1_AMN2
   5    6    1      0.229  10000 ; AMN2_CO1
   8    9    1      0.301  10000 ; ARO2_ARO3
   8   10    1      0.222  10000 ; ARO2_ARO4
   9   10    1      0.302  10000 ; ARO3_ARO4
#endif

[ angles ]
   5    7    8    2    147    125 ; AMN2_AMN3_ARO2
   6    5    7    2    115    250 ; CO1_AMN2_AMN3
   7    8    9    2     68    125 ; AMN3_ARO2_ARO3
   9   10   11    2     76    100 ; ARO3_ARO4_AMD2
  10   11   12    2    139     75 ; ARO4_AMD2_C1
  11   12   13    2     80    125 ; AMD2_C1_CAC1
  13   12   14    2    135     85 ; CAC1_C1_AMD3
  12   14   15    2    152    150 ; C1_AMD3_C2
  14   15   16    2     76    100 ; AMD3_C2_CAC2
  16   15   17    2    135     76 ; CAC2_C2_AMD4
  15   17   18    2    150    155 ; C2_AMD4_C3
  17   18   19    2     72    155 ; AMD4_C3_CAC3
  17   18   20    2    145     62 ; AMD4_C3_CAC4

[ dihedrals ]
   2    1    5    4    2   -170     68  ; AMD1_IMI1_AMN2_AMN1

[ constraints ]
#ifndef FLEXIBLE
   1    2    1      0.285 ; IMI1_AMD1
   2    5    1      0.452 ; AMD1_AMN2
   4    5    1      0.244 ; AMN1_AMN2
   5    6    1      0.229 ; AMN2_CO1
   8    9    1      0.301 ; ARO2_ARO3
   8   10    1      0.222 ; ARO2_ARO4
   9   10    1      0.302 ; ARO3_ARO4
#endif

[ virtual_sitesn ]
3 1 1 2 4 5

[ exclusions ]
1 2 3 4 5
2 3 4 5
3 4 5
4 5
8 9 10 
9 10
10 11 12
11 12 13
12 13 14
13 14 15
14 15 16
15 16 17
16 17 18
17 18 19
18 19 20
;
; Topology prepared automatically using PyCGTOOL
; James Graham <J.A.Graham@soton.ac.uk> 2016
; University of Southampton
; https://github.com/jag1g13/pycgtool
;

[ moleculetype ]
5FTF    1

[ atoms ]
   1 SN4a    1 5FTF IMI1    1    0.000   54
   2 SP3     1 5FTF AMD1    2    0.000   54
   3 TC5e    1 5FTF ARO1    3    0.000   0
   4 TN4     1 5FTF AMN1    4    0.000   36
   5 TN3a    1 5FTF AMN2    5    0.000   36
   6 TN5a    1 5FTF CO1     6    0.000   36
   7 TN4     1 5FTF AMN3    7    0.000   36
   8 TC5     1 5FTF ARO2    8    0.000   36
   9 TC5     1 5FTF ARO3    9    0.000   36
  10 TC5     1 5FTF ARO4   10    0.000   36
  11 SP3     1 5FTF AMD2   11    0.000   54 
  12 SC2     1 5FTF C1     12    0.000   54
  13 SQ5n    1 5FTF CAC1   13   -1.000   54
  14 SQ5n    1 5FTF CAC2   14   -1.000   54

[ bonds ]
   7    8    1      0.252   5000  ; AMN3_ARO2
  10   11    1      0.243  10000  ; ARO4_AMD2
  11   12    1      0.285   5563  ; AMD2_C1
  12   13    1      0.280   7500  ; C1_CAC1
;changed from constraints
  12   14    1      0.284  50000  ; C1_CAC2
   5    7    1      0.227  25000  ; AMN2_AMN3
   1    4    1      0.487  25000  ; IMI1_AMN1
   2    4    1      0.491  50000  ; AMD1_AMN1

#ifdef FLEXIBLE
   1    2    1      0.285  10000  ; IMI1_AMD1
   2    5    1      0.452  10000  ; AMD1_AMN2
   4    5    1      0.244  10000  ; AMN1_AMN2
   5    6    1      0.229  10000  ; AMN2_CO1
   8    9    1      0.301  10000  ; ARO2_ARO3
   8   10    1      0.222  10000  ; ARO2_ARO4
   9   10    1      0.301  10000  ; ARO3_ARO4
#endif

[ angles ]
   5    7    8    2    155    115  ; AMN2_AMN3_ARO2
   7    8    9    2     86    100  ; AMN3_ARO2_ARO3
   9   10   11    2     80    125  ; ARO3_ARO4_AMD2
   6    5    7    2    115    259  ; CO1_AMN2_AMN3
  10   11   12    2    139     75  ; ARO4_AMD2_C1
  11   12   13    2     84    150  ; AMD2_C1_CAC1
  11   12   14    2    145     75  ; AMD2_C1_CAC2

[ dihedrals ]
   2    1    5    4    2    -170    41   ; AMD1_IMI1_AMN2_AMN1
   5    9   10   12    1      0     10    1  ; AMN2_ARO3_ARO4_C1
   1    6   10   13    9    -10      2    1  ; IMI1_CO1_ARO4_CAC1

[ constraints ]
#ifndef FLEXIBLE
   1    2    1      0.285  ; IMI1_AMD1
   2    5    1      0.452  ; AMD1_AMN2
   4    5    1      0.244  ; AMN1_AMN2
   5    6    1      0.229  ; AMN2_CO1
   8    9    1      0.301  ; ARO2_ARO3
   8   10    1      0.222  ; ARO2_ARO4
   9   10    1      0.301  ; ARO3_ARO4
#endif

[ virtual_sitesn ]
3 1 1 2 4 5

[ exclusions ]
1 2 3 4 5
2 3 4 5
3 4 5
4 5
8 9 10 
9 10
10 11 12
11 12 13
12 13 14
;
; Topology prepared automatically using PyCGTOOL
; James Graham <J.A.Graham@soton.ac.uk> 2016
; University of Southampton
; https://github.com/jag1g13/pycgtool
;

[ moleculetype ]
5MG     1

[ atoms ]
   1 SN4a    1 5MG  IMI1    1    0.000  54
   2 SP3     1 5MG  AMD1    2    0.000  54
   3 TC5e    1 5MG  ARO1    3    0.000  0
   4 TN4     1 5MG  AMN1    4    0.000  36
   5 SN3a    1 5MG  AMN2    5    0.000  36
   6 TN3a    1 5MG  AMN3    6    0.000  36
   7 TC5     1 5MG  ARO2    7    0.000  36
   8 TC5     1 5MG  ARO3    8    0.000  36
   9 TC5     1 5MG  ARO4    9    0.000  36
  10 SP3     1 5MG  AMD2   10    0.000  54
  11 SC2     1 5MG  C1     11    0.000  54
  12 SQ5n    1 5MG  CAC1   12   -1.000  54
  13 SQ5n    1 5MG  CAC2   13   -1.000  54

[ bonds ]
   6    7    1      0.313  50000  ; AMN3_ARO2
   9   10    1      0.248  10000  ; ARO4_AMD2
  10   11    1      0.278   6000  ; AMD2_C1
  11   12    1      0.280   7500  ; C1_CAC1
;changed from constraints
  11   13    1      0.279  25000  ; C1_CAC2
   1    4    1      0.489  25000  ; IMI1_AMN1

#ifdef FLEXIBLE
   1    2    1      0.286  10000  ; IMI1_AMD1
   2    5    1      0.516  10000  ; AMD1_AMN2
   2    4    1      0.490  10000  ; AMN2_AMN1
   4    5    1      0.269  10000  ; AMN1_AMN2
   5    6    1      0.236  10000  ; AMN2_AMN3
   7    8    1      0.301  10000  ; ARO2_ARO3
   7    9    1      0.221  10000  ; ARO2_ARO4
   8    9    1      0.301  10000  ; ARO3_ARO4
#endif

[ angles ]
   5    6    7    2     70   1500  ; AMN2_AMN3_ARO2
   6    7    8    2     67   1500  ; AMN3_ARO2_ARO3
   8    9   10    2     74   1000  ; ARO3_ARO4_AMD2
   9   10   11    2    141     75  ; ARO4_AMD2_C1
  10   11   12    2     80    150  ; AMD2_C1_CAC1
  10   11   13    2    143     75  ; AMD2_C1_CAC2

[ dihedrals ]
   2    1    5    4    2    170     50    ; AMD1_IMI1_AMN2_AMN1
   5    8    9   11    1      0     10    1  ; AMN2_ARO3_ARO4_C1
   2    1    6    7    2    170     25    ; AMD1_IMI1_AMN3_ARO2

[ constraints ]
#ifndef FLEXIBLE
   1    2    1      0.286  ; IMI1_AMD1
   2    5    1      0.516  ; AMD1_AMN2
   2    4    1      0.490  ; AMN2_AMN1
   4    5    1      0.269  ; AMN1_AMN2
   5    6    1      0.236  ; AMN2_AMN3
   7    8    1      0.301  ; ARO2_ARO3
   7    9    1      0.221  ; ARO2_ARO4
   8    9    1      0.301  ; ARO3_ARO4
#endif

[ virtual_sitesn ]
3 1 1 2 4 5

[ exclusions ]
1 2 3 4 5
2 3 4 5
3 4 5
4 5
5 6 7
6 7 8
7 8 9 
8 9 10
10 11 12
11 12 13
; This file was generated using the following command:
; /home/jan/.micromamba/envs/fast_forward/bin/ff_inter -f mapped.xtc -s mapped.gro -i A3P.itp -dists -plots -itp-only
;

; Please cite the following papers:
; Kroon, P C; Grunewald, F; Barnoud, J; van Tilburg, M; Souza, P C; Wassenaar, T A; Marrink, S J;  elife 2024; 10.7554/elife.90627.2
; Brasnett, C; Grunewald, L; Wassenaar, T A; Marrink, S J; Grunewald, F;  2025; https://zenodo.org/badge/latestdoi/327071500

[ moleculetype ]
A3P 1

[ atoms ]
 1 SN1   1 A3P ADE1  1  0.0 45.0
 2 TN3a  1 A3P ADE2  2  0.0 45.0
 3 TN5a  1 A3P ADE3  3  0.0  0.0
 4 TP1d  1 A3P ADE4  4  0.0 45.0
 5 TN3a  1 A3P ADE5  5  0.0 45.0
 6 TC6   1 A3P ADE6  6  0.0  0.0
 7 SN6   1 A3P RIB1  7  0.0 54.0
 8 TN6   1 A3P RIB2  8  0.0 54.0
 9 SN4   1 A3P RIB3  9  0.0 54.0
10 TC4   1 A3P RIB4 10  0.0  0.0
11 D     1 A3P P1   11 -2.0 72.0
12 D     1 A3P P2   12 -2.0 72.0

[ bonds ]
 1  7 1 0.273 9702.627
 7  8 1 0.235 8436.702

#ifdef FLEXIBLE
 7  9 1 0.345 10000
 8  9 1 0.29 10000
 9 11 1 0.304 10000 ; RIB3_P1
 8 12 1 0.234 10000 ; RIB3_P2
#endif

[ constraints ]
 1  2 1 0.268
 1  5 1 0.287
 4  5 1 0.316
 2  5 1 0.353
 2  4 1 0.417

#ifndef FLEXIBLE
 7  9 1 0.345
 8  9 1 0.29
 9 11 1 0.304 ; RIB3_P1
 8 12 1 0.234 ; RIB3_P2
#endif

[ angles ]
 2  1  7 10 75.96 53.279
 1  7  8 10 136.076 104.199
 1  7  9 10 84.807 50.557
 8  9 11 10 85.000 54.008 ; RIB2_RIB3_P1
 8  9 12 10 40.000 100 ; RIB2_RIB3_P2

[ virtual_sitesn ]
 6 2  2  5
10 1  7  8  9

[ dihedrals ]
 2  1  7  8 2 -120.722 15
 1  2  5  4 2 180.0 400
 7  8 12 11 2 -180.000 20.000 ; RIB1_RIB2_P2_P1
 7  8  9 12 2 150.000 220.000 ; RIB1_RIB2_RIB3_P2

[ virtual_sites3 ]
 3  5  2  4 2 0.52 0.373

[ exclusions ]
 1  2  3  4  5  6
 2  3  4  5  6
 3  4  5  6
 4  5  6
 5  6
10  7  8  9
 2  7

;
; Topology prepared automatically using PyCGTOOL
; James Graham <J.A.Graham@soton.ac.uk> 2016
; University of Southampton
; https://github.com/jag1g13/pycgtool
;

[ moleculetype ]
AAD     1

[ atoms ]
   1 SQ5n    1 AAD  CAC1    1   -1.000
   2 TQ4p    1 AAD  AMC1    2    1.000
   3 SC1     1 AAD  C1      3    0.000
   4 SQ5n    1 AAD  CAC2    4   -1.000

[ bonds ]
   2    3    1      0.312  10000 ; AMC1_C1
   3    4    1      0.295  15000 ; C1_CAC2

#ifdef FLEXIBLE
   1    2    1      0.283  10000 ; CAC1_AMC1
#endif

[ angles ]
   1    2    3    2     85    150 ; CAC1_AMC1_C1
   2    3    4    2    130     50 ; AMC1_C1_CAC2

[ dihedrals ]
;   1    2    3    4    1     -5      3    1  ; CAC1_AMC1_C1_CAC2

[ constraints ]
#ifndef FLEXIBLE
   1    2    1      0.283 ; CAC1_AMC1
#endif

[ exclusions ]
1 2 3 4
2 3 4
3 4

; This file was generated using the following command:
; /coarse/chris/python_packages/fast_forward/.venv/bin/ff_inter -f mapped.xtc -s mapped.tpr -i AALA.itp -plots -dists
; 

; Please cite the following papers:
; Brasnett, C; Grunewald, L; Wassenaar, T A; Marrink, S J; Grunewald, F;  2025; https://zenodo.org/badge/latestdoi/327071500
; Kroon, P C; Grunewald, F; Barnoud, J; van Tilburg, M; Souza, P C; Wassenaar, T A; Marrink, S J;  elife 2024; 10.7554/elife.90627.2

[ moleculetype ]
AALA 1

[ atoms ]
1 SQ5n 1 AALA CAC1 1 -1.0 54.0
2 TC2  1 AALA C1   2  0.0 36.0
3 SP3  1 AALA AMD1 3  0.0 54.0

[ bonds ]
2 3 1 0.357 10000 ; C1_AMD1
#ifdef FLEXIBLE
1 2 1 0.26 10000 ; CAC1_C1
#endif

[ constraints ]
#ifndef FLEXIBLE
1 2 1 0.26 ; CAC1_C1
#endif

[ angles ]
1 2 3 2 90.326 50.145 ; CAC1_C1_AMD1


; This file was generated using the following command:
; /coarse/chris/python_packages/fast_forward/.venv/bin/ff_inter -f mapped.xtc -s mapped.tpr -i ACAR.itp -plots -dists
; 

; Please cite the following papers:
; Brasnett, C; Grunewald, L; Wassenaar, T A; Marrink, S J; Grunewald, F;  2025; https://zenodo.org/badge/latestdoi/327071500
; Kroon, P C; Grunewald, F; Barnoud, J; van Tilburg, M; Souza, P C; Wassenaar, T A; Marrink, S J;  elife 2024; 10.7554/elife.90627.2

[ moleculetype ]
ACAR 1

[ atoms ]
1 SQ5n 1 ACAR CAC1 1 -1.0 
2 SC2  1 ACAR C1   2  0.0 
3 N4a  1 ACAR CO1  3  0.0 
4 Q2   1 ACAR NC3  4  1.0 

[ bonds ]
1 2 1 0.248 10000 ; CAC1_C1
#ifdef FLEXIBLE
;1 2 1 0.248 10000 ; CAC1_C1
2 4 1 0.328 10000 ; C1_CO1
2 3 1 0.364 10000 ; C1_NC3
#endif

[ constraints ]
#ifndef FLEXIBLE
;1 2 1 0.248 ; CAC1_C1
2 4 1 0.328 ; C1_CO1
2 3 1 0.364 ; C1_NC3
#endif

[ angles ]
1 2 4 10 121.194 68.526 ; CAC1_C1_NC3
1 2 3 10 116.594 62.71 ; CAC1_C1_CO1
3 2 4 10 96.145 50.724 ; CO1_C1_NC3


[ moleculetype ]
ACEH 1

[ atoms ]
1 SN4a 1 ACEH CO1 1 0.0 54.0


; This file was generated using the following command:
; /coarse/chris/python_packages/fast_forward/.venv/bin/ff_inter -f mapped.xtc -s mapped.tpr -i ACEN.itp -plots -dists -max-dihedral 5
; 

; Please cite the following papers:
; Kroon, P C; Grunewald, F; Barnoud, J; van Tilburg, M; Souza, P C; Wassenaar, T A; Marrink, S J;  elife 2024; 10.7554/elife.90627.2
; Brasnett, C; Grunewald, L; Wassenaar, T A; Marrink, S J; Grunewald, F;  2025; https://zenodo.org/badge/latestdoi/327071500

[ moleculetype ]
ACEN 1

[ atoms ]
1 SQ5n 1 ACEN CAC1 1 -1.0 54.0
2 SC4  1 ACEN C1   2  0.0 54.0
3 SQ5n 1 ACEN CAC2 3 -1.0 54.0
4 SQ5n 1 ACEN CAC3 4 -1.0 54.0

[ bonds ]
1 2 1 0.253 4469.532 ; CAC1_C1
2 4 1 0.273 10000 ; C1_CAC3

#ifdef FLEXIBLE
2 3 1 0.343 10000 ; C1_CAC2
#endif

[ constraints ]
#ifndef FLEXIBLE
2 3 1 0.343 ; C1_CAC2
#endif

[ angles ]
1 2 3 10 129.636 150 ; CAC1_C1_CAC2
1 2 4 10 110 50 ; CAC1_C1_CAC3
3 2 4 10 73.796 600 ; CAC2_C1_CAC3

[ exclusions ]
1 2 3 4
2 3 4
3 4

; This file was generated using the following command:
; ff_inter -f mapped.xtc -s mapped.gro -i ACEP.itp -dists -plots
;

; Please cite the following papers:
; Kroon, P C; Grunewald, F; Barnoud, J; van Tilburg, M; Souza, P C; Wassenaar, T A; Marrink, S J;  elife 2024; 10.7554/elife.90627.2
; Brasnett, C; Grunewald, L; Wassenaar, T A; Marrink, S J; Grunewald, F;  2025; https://zenodo.org/badge/latestdoi/327071500

[ moleculetype ]
ACEP 1

[ atoms ]
1 SN4a 1 ACEP CO1 1  0.0 54.0
2 D    1 ACEP P1  2 -2.0 72.0

[ bonds ]
#ifdef FLEXIBLE
1 2 1 0.346 10000 ; CO1_P1
#endif

[ constraints ]
#ifndef FLEXIBLE
1 2 1 0.346 ; CO1_P1
#endif


[ moleculetype ]
ACET 1

[ atoms ]
1 SQ5n 1 ACET CAC1 1 -1.0 72.0

; This file was generated using the following command:
; /coarse/chris/python_packages/fast_forward/.venv/bin/ff_inter -f mapped.xtc -s mapped.tpr -i ACOA.itp -max-dihedral 5 -plots -itp-only -dists
; 

; Please cite the following papers:
; Kroon, P C; Grunewald, F; Barnoud, J; van Tilburg, M; Souza, P C; Wassenaar, T A; Marrink, S J;  elife 2024; 10.7554/elife.90627.2
; Brasnett, C; Grunewald, L; Wassenaar, T A; Marrink, S J; Grunewald, F;  2025; https://zenodo.org/badge/latestdoi/327071500

[ moleculetype ]
ACOA 1

[ atoms ]
 1 SN1   1 ACOA ADE1  1  0.0 45.0
 2 TN3a  1 ACOA ADE2  2  0.0 45.0
 3 TN5a  1 ACOA ADE3  3  0.0  0.0
 4 TP1d  1 ACOA ADE4  4  0.0 45.0
 5 TN3a  1 ACOA ADE5  5  0.0 45.0
 6 TC6   1 ACOA ADE6  6  0.0  0.0
 7 TC3   1 ACOA RIB1  7  0.0 60.0
 8 TP1   1 ACOA RIB2  8  0.0 60.0
 9 SN4ar 1 ACOA RIB3  9  0.0 78.0
10 TC4   1 ACOA RIB4 10  0.0  0.0
11 Q5n   1 ACOA P1   11 -1.0 72.0
12 Q5n   1 ACOA P2   12 -1.0 72.0
13 D     1 ACOA P4   13 -2.0  0.0
14 C2    1 ACOA C1   14  0.0     
15 P4    1 ACOA ALC1 15  0.0     
16 SN2   1 ACOA AMN1 16  0.0     
17 P2    1 ACOA AMD1 17  0.0     
18 TC6   1 ACOA SUL1 18  0.0     
19 P2    1 ACOA ACE1 19  0.0     

[ bonds ]
 1  7 b_ADE1_RIB1
 7  8 b_RIB1_RIB2
15 16 1 0.349 5513.261
16 17 1 0.364 7339.193
17 18 1 0.265 5244.192

#ifdef FLEXIBLE
 7  9 b_RIB1_RIB3
 8  9 b_RIB2_RIB3
 9 11 b_RIB3_P1
11 12 b_P1_P2
14 15 1 0.267 10000
12 14 1 0.397 10000
18 19 1 0.335 10000 ; SUL1_ACE1
#endif

[ constraints ]
 1  2 1 0.268
 1  5 1 0.287
 2  5 1 0.353
 2  4 1 0.417
 4  5 1 0.316

#ifndef FLEXIBLE
 7  9 c_RIB1_RIB3
 8  9 c_RIB2_RIB3
 9 11 c_RIB3_P1
11 12 c_P1_P2
14 15 1 0.267
12 14 1 0.397
18 19 1 0.335 ; SUL1_ACE1
#endif

[ angles ]
 2  1  7 a_ADE2_ADE1_RIB1
 1  7  8 a_ADE1_RIB1_RIB2
 1  7  9 a_ADE1_RIB1_RIB3
 7  9 11 a_RIB1_RIB3_P1
 9 11 12 a_RIB3_P1_P2
11 12 14 10 122.898 50
12 14 15 10 83.186 50
14 15 16 10 114.286 13.575
15 16 17 10 136.5 16.296
16 17 18 10 129.666 50
17 18 19 10 142.144 133.146 ; AMD1_SUL1_ACE1

[ virtual_sitesn ]
 6 2  2  5
10 1  7  8  9

[ dihedrals ]
 1  2  5  4 d_ADE1_ADE2_ADE5_ADE4
 1  7  9 11 d_ADE1_RIB1_RIB3_P1
 2  1  7  9 d_ADE2_ADE1_RIB1_RIB3_1
 2  1  7  9 d_ADE2_ADE1_RIB1_RIB3_2
 2  1  7  9 d_ADE2_ADE1_RIB1_RIB3_3
 2  1  7  9 d_ADE2_ADE1_RIB1_RIB3_4
 2  1  7  9 d_ADE2_ADE1_RIB1_RIB3_5
 7  9 11 12 d_RIB1_RIB3_P1_P2
 1  7  8  9 d_ADE1_RIB1_RIB2_RIB3
11 12 14 15 2 -66.177 8
 9 11 12 14 2 -8.365 4.064
15 16 17 18 1 0 -1 3
14 15 16 17 1 -58.25 -2.129 1
12 14 15 16 1 123.393 -2.306 1

; AMN1_AMD1_SUL1_ACE1
16 17 18 19 9 -1.965 -2.32 1 ; AMN1_AMD1_SUL1_ACE1

[ virtual_sites3 ]
 3  5  2  4 2 0.52 0.373
13  7  8  9 1 2.039 -0.722

[ exclusions ]
 1  2  3  4  5  6 
 2  3  4  5  6 
 3  4  5  6 
 4  5  6 
 5  6 
10  7  8  9 
13  7  8  9 
11 12 14 15 
12 14 15 
14 15 


; This file was generated using the following command:
; /coarse/chris/python_packages/fast_forward/.venv/bin/ff_inter -f mapped.xtc -s mapped.tpr -i ATP.itp -max-dihedral 5 -plots -itp-only
; 

; Please cite the following papers:
; Brasnett, C; Grunewald, L; Wassenaar, T A; Marrink, S J; Grunewald, F;  2025; https://zenodo.org/badge/latestdoi/327071500
; Kroon, P C; Grunewald, F; Barnoud, J; van Tilburg, M; Souza, P C; Wassenaar, T A; Marrink, S J;  elife 2024; 10.7554/elife.90627.2

[ moleculetype ]
ADE 1

[ atoms ]
 1 SN1   1 ADE ADE1  1  0.0 45.0
 2 TN3a  1 ADE ADE2  2  0.0 45.0
 3 TN5a  1 ADE ADE3  3  0.0  0.0
 4 TP1d  1 ADE ADE4  4  0.0 45.0
 5 TN3a  1 ADE ADE5  5  0.0 45.0
 6 TC6   1 ADE ADE6  6  0.0  0.0


[ constraints ]
 1  2 1 0.268
 1  5 1 0.287
 4  5 1 0.316
 2  5 1 0.353
 2  4 1 0.417

[ dihedrals ]
 1  2  5  4 d_ADE1_ADE2_ADE5_ADE4

[ virtual_sitesn ]
 6 2  2  5

[ virtual_sites3 ]
 3  5  2  4 2 0.52 0.373

[ exclusions ]
 1 2 3 4 5 6 
 2 3 4 5 6
 3 4 5 6
 4 5 6
 5 6

; This file was generated using the following command:
; /coarse/chris/python_packages/fast_forward/.venv/bin/ff_inter -f mapped.xtc -s mapped.tpr -i ADMA.itp -plots -dists -max-dihedral 10 -constraints 50000 -dihedral-scaling 500
; 

; Please cite the following papers:
; Brasnett, C; Grunewald, L; Wassenaar, T A; Marrink, S J; Grunewald, F;  2025; https://zenodo.org/badge/latestdoi/327071500
; Kroon, P C; Grunewald, F; Barnoud, J; van Tilburg, M; Souza, P C; Wassenaar, T A; Marrink, S J;  elife 2024; 10.7554/elife.90627.2

[ moleculetype ]
ADMA 1

[ atoms ]
1 SQ5n 1 ADMA CAC1 5 -1.0 54.0
2 TQ4p 1 ADMA AMC1 4  1.0 36.0
3 SC1  1 ADMA C1   3  0.0 54.0
4 SQ2p 1 ADMA GUA1 2  0.0 54.0
5 SN3a 1 ADMA AMN1 1  0.0 54.0

[ bonds ]
3 4 1 0.367 4550.933 ; C1_GUA1
2 3 1 0.315 26078.985 ; AMC1_C1

#ifdef FLEXIBLE
1 2 1 0.284 10000 ; CAC1_AMC1
4 5 1 0.248 10000 ; GUA1_AMN1
#endif

[ constraints ]
#ifndef FLEXIBLE
1 2 1 0.284 ; CAC1_AMC1
4 5 1 0.248 ; GUA1_AMN1
#endif

[ angles ]
1 2 3 10 77.079 52.782 ; CAC1_AMC1_C1
2 3 4 10 133.64 40 ; AMC1_C1_GUA1
3 4 5 1 152.461 50 ; C1_GUA1_AMN1

[ dihedrals ]
; AMC1_C1_GUA1_AMN1
2 3 4 5 9 172.28 -1.191 1 ; AMC1_C1_GUA1_AMN1

; CAC1_AMC1_C1_GUA1
1 2 3 4 9 31.956 0.387 1 ; CAC1_AMC1_C1_GUA1
1 2 3 4 9 90.59 -0.795 2 ; CAC1_AMC1_C1_GUA1
1 2 3 4 9 99.956 -1.665 3 ; CAC1_AMC1_C1_GUA1
1 2 3 4 9 -52.811 -1.57 4 ; CAC1_AMC1_C1_GUA1
1 2 3 4 9 -24.1 0.6 5 ; CAC1_AMC1_C1_GUA1
1 2 3 4 9 17.252 -0.157 6 ; CAC1_AMC1_C1_GUA1
1 2 3 4 9 39.228 -0.314 7 ; CAC1_AMC1_C1_GUA1
1 2 3 4 9 85.454 0.305 8 ; CAC1_AMC1_C1_GUA1
1 2 3 4 9 -88.167 0.238 9 ; CAC1_AMC1_C1_GUA1
1 2 3 4 9 130.983 0.148 10 ; CAC1_AMC1_C1_GUA1

[ exclusions ]
1 2 3

; This file was generated using the following command:
; /coarse/chris/python_packages/fast_forward/.venv/bin/ff_inter -f mapped.xtc -s mapped.tpr -i ATP.itp -max-dihedral 5 -plots -itp-only
; 

; Please cite the following papers:
; Brasnett, C; Grunewald, L; Wassenaar, T A; Marrink, S J; Grunewald, F;  2025; https://zenodo.org/badge/latestdoi/327071500
; Kroon, P C; Grunewald, F; Barnoud, J; van Tilburg, M; Souza, P C; Wassenaar, T A; Marrink, S J;  elife 2024; 10.7554/elife.90627.2

[ moleculetype ]
ADO 1

[ atoms ]
 1 SN1   1 ADO ADE1  1  0.0 45.0
 2 TN3a  1 ADO ADE2  2  0.0 45.0
 3 TN5a  1 ADO ADE3  3  0.0  0.0
 4 TP1d  1 ADO ADE4  4  0.0 45.0
 5 TN3a  1 ADO ADE5  5  0.0 45.0
 6 TC6   1 ADO ADE6  6  0.0  0.0
 7 SN6   1 ADO RIB1  7  0.0 54.0
 8 TP1   1 ADO RIB2  8  0.0 54.0
 9 SN4ar 1 ADO RIB3  9  0.0 54.0
10 TC4   1 ADO RIB4 10  0.0  0.0

[ bonds ]
 1  7 b_ADE1_RIB1
 7  8 b_RIB1_RIB2

#ifdef FLEXIBLE 
 7  9 b_RIB1_RIB3
 8  9 b_RIB2_RIB3
#endif

[ constraints ]
 1  2 1 0.268
 1  5 1 0.287
 4  5 1 0.316
 2  5 1 0.353
 2  4 1 0.417

#ifndef FLEXIBLE
 7  9 c_RIB1_RIB3
 8  9 c_RIB2_RIB3
#endif

[ angles ]
 2  1  7 a_ADE2_ADE1_RIB1
 1  7  8 a_ADE1_RIB1_RIB2
 1  7  9 a_ADE1_RIB1_RIB3

[ dihedrals ]
 1 7 8 9 d_ADE1_RIB1_RIB2_RIB3
 1  2  5  4 d_ADE1_ADE2_ADE5_ADE4
 2  1  7  9 d_ADE2_ADE1_RIB1_RIB3_1
 2  1  7  9 d_ADE2_ADE1_RIB1_RIB3_2
 2  1  7  9 d_ADE2_ADE1_RIB1_RIB3_3
 2  1  7  9 d_ADE2_ADE1_RIB1_RIB3_4
 2  1  7  9 d_ADE2_ADE1_RIB1_RIB3_5


[ virtual_sitesn ]
 6 2  2  5
10 1  7  8  9

[ virtual_sites3 ]
 3  5  2  4 2 0.52 0.373

[ exclusions ]
 1 2 3 4 5 6 
 2 3 4 5 6
 3 4 5 6
 4 5 6
 5 6
10 7 8 9
 2 1 7 8 9
 1 7 8 9

; This file was generated using the following command:
; /coarse/chris/python_packages/fast_forward/.venv/bin/ff_inter -f mapped.xtc -s mapped.tpr -i ATP.itp -max-dihedral 5 -plots -itp-only
; 

; Please cite the following papers:
; Brasnett, C; Grunewald, L; Wassenaar, T A; Marrink, S J; Grunewald, F;  2025; https://zenodo.org/badge/latestdoi/327071500
; Kroon, P C; Grunewald, F; Barnoud, J; van Tilburg, M; Souza, P C; Wassenaar, T A; Marrink, S J;  elife 2024; 10.7554/elife.90627.2

[ moleculetype ]
ADPH 1

[ atoms ]
 1 SN1   1 ADPH ADE1  1  0.0 45.0
 2 TN3a  1 ADPH ADE2  2  0.0 45.0
 3 TN5a  1 ADPH ADE3  3  0.0  0.0
 4 TP1d  1 ADPH ADE4  4  0.0 45.0
 5 TN3a  1 ADPH ADE5  5  0.0 45.0
 6 TC6   1 ADPH ADE6  6  0.0  0.0
 7 SN6   1 ADPH RIB1  7  0.0 54.0
 8 TP1   1 ADPH RIB2  8  0.0 54.0
 9 SN4ar 1 ADPH RIB3  9  0.0 54.0
10 TC4   1 ADPH RIB4 10  0.0  0.0
11 Q5n   1 ADPH P1   11 -1.0 72.0
12 Q5n   1 ADPH P2   12 -1.0 72.0

[ bonds ]
 1  7 b_ADE1_RIB1
 7  8 b_RIB1_RIB2

#ifdef FLEXIBLE 
 7  9 b_RIB1_RIB3
 8  9 b_RIB2_RIB3
 9 11 b_RIB3_P1
11 12 b_H_P1_P2
#endif

[ constraints ]
 1  2 1 0.268
 1  5 1 0.287
 4  5 1 0.316
 2  5 1 0.353
 2  4 1 0.417

#ifndef FLEXIBLE
 7  9 c_RIB1_RIB3
 8  9 c_RIB2_RIB3
 9 11 c_RIB3_P1
11 12 c_H_P1_P2
#endif

[ angles ]
 2  1  7 a_ADE2_ADE1_RIB1
 1  7  8 a_ADE1_RIB1_RIB2
 1  7  9 a_ADE1_RIB1_RIB3
 7  9 11 a_RIB1_RIB3_P1
 9 11 12 a_RIB3_P1_P2

[ dihedrals ]
 1 7 8 9 d_ADE1_RIB1_RIB2_RIB3
 1  2  5  4 d_ADE1_ADE2_ADE5_ADE4
 2  1  7  9 d_ADE2_ADE1_RIB1_RIB3_1
 2  1  7  9 d_ADE2_ADE1_RIB1_RIB3_2
 2  1  7  9 d_ADE2_ADE1_RIB1_RIB3_3
 2  1  7  9 d_ADE2_ADE1_RIB1_RIB3_4
 2  1  7  9 d_ADE2_ADE1_RIB1_RIB3_5
 1  7  9 11 d_ADE1_RIB1_RIB3_P1
 7  9 11 12 d_RIB1_RIB3_P1_P2


[ virtual_sitesn ]
 6 2  2  5
10 1  7  8  9

[ virtual_sites3 ]
 3  5  2  4 2 0.52 0.373

[ exclusions ]
 1 2 3 4 5 6 
 2 3 4 5 6
 3 4 5 6
 4 5 6
 5 6
10 7 8 9
 2 1 7 8 9
 1 7 8 9

; This file was generated using the following command:
; /coarse/chris/python_packages/fast_forward/.venv/bin/ff_inter -f mapped.xtc -s mapped.tpr -i ATP.itp -max-dihedral 5 -plots -itp-only
; 

; Please cite the following papers:
; Brasnett, C; Grunewald, L; Wassenaar, T A; Marrink, S J; Grunewald, F;  2025; https://zenodo.org/badge/latestdoi/327071500
; Kroon, P C; Grunewald, F; Barnoud, J; van Tilburg, M; Souza, P C; Wassenaar, T A; Marrink, S J;  elife 2024; 10.7554/elife.90627.2

[ moleculetype ]
ADP 1

[ atoms ]
 1 SN1   1 ADP ADE1  1  0.0 45.0
 2 TN3a  1 ADP ADE2  2  0.0 45.0
 3 TN5a  1 ADP ADE3  3  0.0  0.0
 4 TP1d  1 ADP ADE4  4  0.0 45.0
 5 TN3a  1 ADP ADE5  5  0.0 45.0
 6 TC6   1 ADP ADE6  6  0.0  0.0
 7 SN6   1 ADP RIB1  7  0.0 54.0
 8 TP1   1 ADP RIB2  8  0.0 54.0
 9 SN4ar 1 ADP RIB3  9  0.0 54.0
10 TC4   1 ADP RIB4 10  0.0  0.0
11 Q5n   1 ADP P1   11 -1.0 72.0
12 D     1 ADP P2   12 -2.0 72.0

[ bonds ]
 1  7 b_ADE1_RIB1
 7  8 b_RIB1_RIB2

#ifdef FLEXIBLE 
 7  9 b_RIB1_RIB3
 8  9 b_RIB2_RIB3
 9 11 b_RIB3_P1
11 12 b_P1_P2
#endif

[ constraints ]
 1  2 1 0.268
 1  5 1 0.287
 4  5 1 0.316
 2  5 1 0.353
 2  4 1 0.417

#ifndef FLEXIBLE
 7  9 c_RIB1_RIB3
 8  9 c_RIB2_RIB3
 9 11 c_RIB3_P1
11 12 c_P1_P2
#endif

[ angles ]
 2  1  7 a_ADE2_ADE1_RIB1
 1  7  8 a_ADE1_RIB1_RIB2
 1  7  9 a_ADE1_RIB1_RIB3
 7  9 11 a_RIB1_RIB3_P1
 9 11 12 a_RIB3_P1_P2

[ dihedrals ]
 1  2  5  4 d_ADE1_ADE2_ADE5_ADE4
 1  7  9 11 d_ADE1_RIB1_RIB3_P1
 2  1  7  9 d_ADE2_ADE1_RIB1_RIB3_1
 2  1  7  9 d_ADE2_ADE1_RIB1_RIB3_2
 2  1  7  9 d_ADE2_ADE1_RIB1_RIB3_3
 2  1  7  9 d_ADE2_ADE1_RIB1_RIB3_4
 2  1  7  9 d_ADE2_ADE1_RIB1_RIB3_5
 7  9 11 12 d_RIB1_RIB3_P1_P2
 1  7  8  9 d_ADE1_RIB1_RIB2_RIB3

[ virtual_sitesn ]
 6 2  2  5
10 1  7  8  9

[ virtual_sites3 ]
 3  5  2  4 2 0.52 0.373

[ exclusions ]
 1 2 3 4 5 6 
 2 3 4 5 6
 3 4 5 6
 4 5 6
 5 6
10 7 8 9
 2 1 7 8 9
 1 7 8 9

; This file was generated using the following command:
; /coarse/chris/python_packages/fast_forward/.venv/bin/ff_inter -f mapped.xtc -s mapped.tpr -i NAD.itp -max-dihedral 5 -plots -itp-only -dists
; 

; Please cite the following papers:
; Kroon, P C; Grunewald, F; Barnoud, J; van Tilburg, M; Souza, P C; Wassenaar, T A; Marrink, S J;  elife 2024; 10.7554/elife.90627.2
; Brasnett, C; Grunewald, L; Wassenaar, T A; Marrink, S J; Grunewald, F;  2025; https://zenodo.org/badge/latestdoi/327071500

[ moleculetype ]
ADPR 1

[ atoms ]
 1 SN1   1 ADPR ADE1  1  0.0 45.0
 2 TN3a  1 ADPR ADE2  2  0.0 45.0
 3 TN5a  1 ADPR ADE3  3  0.0  0.0
 4 TP1d  1 ADPR ADE4  4  0.0 45.0
 5 TN3a  1 ADPR ADE5  5  0.0 45.0
 6 TC6   1 ADPR ADE6  6  0.0  0.0
 7 TC3   1 ADPR RIB1  7  0.0 54.0
 8 TP1   1 ADPR RIB2  8  0.0 54.0
 9 SN4ar 1 ADPR RIB3  9  0.0 54.0
10 TC4   1 ADPR RIB4 10  0.0  0.0
11 Q5n   1 ADPR P1   11 -1.0 72.0
12 Q5n   1 ADPR P2   12 -1.0 72.0
13 SN4ar 1 ADPR RIB5 13  0.0 54.0
14 TP1   1 ADPR RIB6 14  0.0 54.0
15 SN6   1 ADPR RIB7 15  0.0 54.0
16 TC4   1 ADPR RIB8 16  0.0  0.0

[ bonds ]
 1  7 b_ADE1_RIB1
 7  8 b_RIB1_RIB2
14 15 b_RIB1_RIB2

#ifdef FLEXIBLE
 7  9 b_RIB1_RIB3
13 15 b_RIB1_RIB3
 8  9 b_RIB2_RIB3
13 14 b_RIB2_RIB3
 9 11 b_RIB3_P1
12 13 b_RIB3_P1
11 12 b_P1_P2
#endif

[ constraints ]
 1  2 1 0.268
 1  5 1 0.287
 4  5 1 0.316
 2  5 1 0.353
 2  4 1 0.417

#ifndef FLEXIBLE
 7  9 c_RIB1_RIB3
13 15 c_RIB1_RIB3
 8  9 c_RIB2_RIB3
13 14 c_RIB2_RIB3
 9 11 c_RIB3_P1
12 13 c_RIB3_P1
11 12 c_P1_P2
#endif

[ angles ]
 2  1  7 a_ADE2_ADE1_RIB1
 1  7  8 a_ADE1_RIB1_RIB2
 1  7  9 a_ADE1_RIB1_RIB3
 7  9 11 a_RIB1_RIB3_P1
 9 11 12 a_RIB3_P1_P2
11 12 13 a_RIB3_P1_P2 ; same in reverse
12 13 15 a_RIB1_RIB3_P1 ; same in reverse

[ virtual_sitesn ]
 6 2  2  5
10 1  7  8  9
16 1 13 14 15

[ dihedrals ]
 1  2  5  4 d_ADE1_ADE2_ADE5_ADE4
 1  7  9 11 d_ADE1_RIB1_RIB3_P1
 2  1  7  9 d_ADE2_ADE1_RIB1_RIB3_1
 2  1  7  9 d_ADE2_ADE1_RIB1_RIB3_2
 2  1  7  9 d_ADE2_ADE1_RIB1_RIB3_3
 2  1  7  9 d_ADE2_ADE1_RIB1_RIB3_4
 2  1  7  9 d_ADE2_ADE1_RIB1_RIB3_5
 7  9 11 12 d_RIB1_RIB3_P1_P2
 1  7  8  9 d_ADE1_RIB1_RIB2_RIB3 
 9 11 12 13 d_RIB3_P1_P2_RIB5
11 12 13 15 d_P1_P2_RIB5_RIB7

[ virtual_sites3 ]
 3  5  2  4 2 0.52 0.373

[ exclusions ]
 1  2  3  4  5  6 
 2  3  4  5  6 
 3  4  5  6 
 4  5  6 
 5  6 
10  7  8  9 
16 13 14 15


; This file was generated using the following command:
; /coarse/chris/python_packages/fast_forward/.venv/bin/ff_inter -f mapped.xtc -s mapped.tpr -i AGLU.itp -plots -dists
; 

; Please cite the following papers:
; Brasnett, C; Grunewald, L; Wassenaar, T A; Marrink, S J; Grunewald, F;  2025; https://zenodo.org/badge/latestdoi/327071500
; Kroon, P C; Grunewald, F; Barnoud, J; van Tilburg, M; Souza, P C; Wassenaar, T A; Marrink, S J;  elife 2024; 10.7554/elife.90627.2

[ moleculetype ]
AGLU 1

[ atoms ]
1 SP3  1 AGLU AMD1 1  0.0 54.0
2 SC2  1 AGLU C1   2  0.0 54.0
3 SQ5n 1 AGLU CAC1 3 -1.0 54.0
4 SQ5n 1 AGLU CAC2 4 -1.0 54.0

[ bonds ]
1 2 1 0.367 5125.404 ; AMD1_C1
2 4 1 0.281 2814.896 ; C1_CAC2
2 3 1 0.279 10000 ; C1_CAC1

[ angles ]
1 2 3 10 128.059 80.881 ; AMD1_C1_CAC1
1 2 4 10 82.752 50.954 ; AMD1_C1_CAC2
3 2 4 10 134.801 99.594 ; CAC1_C1_CAC2


; This file was generated using the following command:
; /coarse/chris/python_packages/fast_forward/.venv/bin/ff_inter -f mapped.xtc -s mapped.tpr -i ALLA.itp -plots -dists
; 

; Please cite the following papers:
; Brasnett, C; Grunewald, L; Wassenaar, T A; Marrink, S J; Grunewald, F;  2025; https://zenodo.org/badge/latestdoi/327071500
; Kroon, P C; Grunewald, F; Barnoud, J; van Tilburg, M; Souza, P C; Wassenaar, T A; Marrink, S J;  elife 2024; 10.7554/elife.90627.2

[ moleculetype ]
ALLA 1

[ atoms ]
1 SP3 1 ALLA AMD1 1 0.0 54.0
2 SP3 1 ALLA AMD2 2 0.0 54.0
3 TN4 1 ALLA AMN1 3 0.0 36.0
4 SP5 1 ALLA AMD3 4 0.0 54.0

[ bonds ]
#ifdef FLEXIBLE
1 2 1 0.265 10000 ; AMD1_AMD2
1 3 1 0.248 10000 ; AMD1_AMN1
2 3 1 0.274 10000 ; AMD2_AMN1
3 4 1 0.251 10000 ; AMN1_AMD3
#endif

[ constraints ]
#ifndef FLEXIBLE
1 2 1 0.265 ; AMD1_AMD2
1 3 1 0.248 ; AMD1_AMN1
2 3 1 0.274 ; AMD2_AMN1
3 4 1 0.251 ; AMN1_AMD3
#endif

[ angles ]
2 3 4 10 129.804 84.961 ; AMD2_AMN1_AMD3

[ dihedrals ]
1 2 3 4 2 152.521 107.58 ; AMD1_AMD2_AMN1_AMD3

[ exclusions ]
1 2 3 4
2 3 4
3 4

; This file was generated using the following command:
; /coarse/chris/python_packages/fast_forward/.venv/bin/ff_inter -f mapped.xtc -s mapped.tpr -i ATP.itp -max-dihedral 5 -plots -itp-only
; 

; Please cite the following papers:
; Brasnett, C; Grunewald, L; Wassenaar, T A; Marrink, S J; Grunewald, F;  2025; https://zenodo.org/badge/latestdoi/327071500
; Kroon, P C; Grunewald, F; Barnoud, J; van Tilburg, M; Souza, P C; Wassenaar, T A; Marrink, S J;  elife 2024; 10.7554/elife.90627.2

[ moleculetype ]
AMP 1

[ atoms ]
 1 SN1   1 AMP ADE1  1  0.0 45.0
 2 TN3a  1 AMP ADE2  2  0.0 45.0
 3 TN5a  1 AMP ADE3  3  0.0  0.0
 4 TP1d  1 AMP ADE4  4  0.0 45.0
 5 TN3a  1 AMP ADE5  5  0.0 45.0
 6 TC6   1 AMP ADE6  6  0.0  0.0
 7 SN6   1 AMP RIB1  7  0.0 54.0
 8 TP1   1 AMP RIB2  8  0.0 54.0
 9 SN4ar 1 AMP RIB3  9  0.0 54.0
10 TC4   1 AMP RIB4 10  0.0  0.0
11 D     1 AMP P1   11 -2.0 72.0

[ bonds ]
 1  7 b_ADE1_RIB1
 7  8 b_RIB1_RIB2

#ifdef FLEXIBLE 
 7  9 b_RIB1_RIB3
 8  9 b_RIB2_RIB3
 9 11 b_RIB3_P1
#endif

[ constraints ]
 1  2 1 0.268
 1  5 1 0.287
 4  5 1 0.316
 2  5 1 0.353
 2  4 1 0.417

#ifndef FLEXIBLE
 7  9 c_RIB1_RIB3
 8  9 c_RIB2_RIB3
 9 11 c_RIB3_P1
#endif

[ angles ]
 2  1  7 a_ADE2_ADE1_RIB1
 1  7  8 a_ADE1_RIB1_RIB2
 1  7  9 a_ADE1_RIB1_RIB3
 7  9 11 a_RIB1_RIB3_P1

[ dihedrals ]
 1 7 8 9 d_ADE1_RIB1_RIB2_RIB3
 1  2  5  4 d_ADE1_ADE2_ADE5_ADE4
 2  1  7  9 d_ADE2_ADE1_RIB1_RIB3_1
 2  1  7  9 d_ADE2_ADE1_RIB1_RIB3_2
 2  1  7  9 d_ADE2_ADE1_RIB1_RIB3_3
 2  1  7  9 d_ADE2_ADE1_RIB1_RIB3_4
 2  1  7  9 d_ADE2_ADE1_RIB1_RIB3_5
 1  7  9 11 d_ADE1_RIB1_RIB3_P1

[ virtual_sitesn ]
 6 2  2  5
10 1  7  8  9

[ virtual_sites3 ]
 3  5  2  4 2 0.52 0.373

[ exclusions ]
 1 2 3 4 5 6 
 2 3 4 5 6
 3 4 5 6
 4 5 6
 5 6
10 7 8 9
 2 1 7 8 9
 1 7 8 9

; This file was generated using the following command:
; /coarse/chris/python_packages/fast_forward/.venv/bin/ff_inter -f mapped.xtc -s mapped.tpr -i ASER.itp -plots -dists
; 

; Please cite the following papers:
; Brasnett, C; Grunewald, L; Wassenaar, T A; Marrink, S J; Grunewald, F;  2025; https://zenodo.org/badge/latestdoi/327071500
; Kroon, P C; Grunewald, F; Barnoud, J; van Tilburg, M; Souza, P C; Wassenaar, T A; Marrink, S J;  elife 2024; 10.7554/elife.90627.2

[ moleculetype ]
ASER 1

[ atoms ]
1 P2   1 ASER AMD1 1  0.0 
2 SP1  1 ASER ALC1 2  0.0 
3 SQ5n 1 ASER CAC1 3 -1.0 

[ bonds ]
1 2 1 0.367 3904.937 ; AMD1_ALC1
2 3 1 0.271 10000 ; ALC1_CAC1

[ angles ]
1 2 3 10 70 50.235 ; AMD1_ALC1_CAC1


; This file was generated using the following command:
; /coarse/chris/python_packages/fast_forward/.venv/bin/ff_inter -f mapped.xtc -s mapped.tpr -i ATP.itp -max-dihedral 5 -plots -itp-only
; 

; Please cite the following papers:
; Brasnett, C; Grunewald, L; Wassenaar, T A; Marrink, S J; Grunewald, F;  2025; https://zenodo.org/badge/latestdoi/327071500
; Kroon, P C; Grunewald, F; Barnoud, J; van Tilburg, M; Souza, P C; Wassenaar, T A; Marrink, S J;  elife 2024; 10.7554/elife.90627.2

[ moleculetype ]
ATPH 1

[ atoms ]
 1 SN1   1 ATPH ADE1  1  0.0 45.0
 2 TN3a  1 ATPH ADE2  2  0.0 45.0
 3 TN5a  1 ATPH ADE3  3  0.0  0.0
 4 TP1d  1 ATPH ADE4  4  0.0 45.0
 5 TN3a  1 ATPH ADE5  5  0.0 45.0
 6 TC6   1 ATPH ADE6  6  0.0  0.0
 7 SN6   1 ATPH RIB1  7  0.0 54.0
 8 TP1   1 ATPH RIB2  8  0.0 54.0
 9 SN4ar 1 ATPH RIB3  9  0.0 54.0
10 TC4   1 ATPH RIB4 10  0.0  0.0
11 Q5n   1 ATPH P1   11 -1.0 72.0
12 Q5n   1 ATPH P2   12 -1.0 72.0
13 Q5n   1 ATPH P3   13 -1.0 72.0

[ bonds ]
 1  7 b_ADE1_RIB1
 7  8 b_RIB1_RIB2

#ifdef FLEXIBLE 
 7  9 b_RIB1_RIB3
 8  9 b_RIB2_RIB3
 9 11 b_RIB3_P1
11 12 b_H_P1_P2
12 13 b_H_P2_P3
#endif

[ constraints ]
 1  2 1 0.268
 1  5 1 0.287
 4  5 1 0.316
 2  5 1 0.353
 2  4 1 0.417

#ifndef FLEXIBLE
 7  9 c_RIB1_RIB3
 8  9 c_RIB2_RIB3
 9 11 c_RIB3_P1
11 12 c_H_P1_P2
12 13 c_H_P2_P3
#endif

[ angles ]
 2  1  7 a_ADE2_ADE1_RIB1
 1  7  8 a_ADE1_RIB1_RIB2
 1  7  9 a_ADE1_RIB1_RIB3
 7  9 11 a_RIB1_RIB3_P1
 9 11 12 a_RIB3_P1_P2
11 12 13 a_P1_P2_P3

[ dihedrals ]
 1 7 8 9 d_ADE1_RIB1_RIB2_RIB3
 1  2  5  4 d_ADE1_ADE2_ADE5_ADE4
 2  1  7  9 d_ADE2_ADE1_RIB1_RIB3_1
 2  1  7  9 d_ADE2_ADE1_RIB1_RIB3_2
 2  1  7  9 d_ADE2_ADE1_RIB1_RIB3_3
 2  1  7  9 d_ADE2_ADE1_RIB1_RIB3_4
 2  1  7  9 d_ADE2_ADE1_RIB1_RIB3_5
 1  7  9 11 d_ADE1_RIB1_RIB3_P1
 7  9 11 12 d_RIB1_RIB3_P1_P2
 9 11 12 13 d_RIB3_P1_P2_P3

[ virtual_sitesn ]
 6 2  2  5
10 1  7  8  9

[ virtual_sites3 ]
 3  5  2  4 2 0.52 0.373

[ exclusions ]
 1 2 3 4 5 6 
 2 3 4 5 6
 3 4 5 6
 4 5 6
 5 6
10 7 8 9
 2 1 7 8 9
 1 7 8 9

; This file was generated using the following command:
; /coarse/chris/python_packages/fast_forward/.venv/bin/ff_inter -f mapped.xtc -s mapped.tpr -i ATP.itp -max-dihedral 5 -plots -itp-only
; 

; Please cite the following papers:
; Brasnett, C; Grunewald, L; Wassenaar, T A; Marrink, S J; Grunewald, F;  2025; https://zenodo.org/badge/latestdoi/327071500
; Kroon, P C; Grunewald, F; Barnoud, J; van Tilburg, M; Souza, P C; Wassenaar, T A; Marrink, S J;  elife 2024; 10.7554/elife.90627.2

[ moleculetype ]
ATP 1

[ atoms ]
 1 SN1   1 ATP ADE1  1  0.0 45.0
 2 TN3a  1 ATP ADE2  2  0.0 45.0
 3 TN5a  1 ATP ADE3  3  0.0  0.0
 4 TP1d  1 ATP ADE4  4  0.0 45.0
 5 TN3a  1 ATP ADE5  5  0.0 45.0
 6 TC6   1 ATP ADE6  6  0.0  0.0
 7 SN6   1 ATP RIB1  7  0.0 54.0
 8 TP1   1 ATP RIB2  8  0.0 54.0
 9 SN4ar 1 ATP RIB3  9  0.0 54.0
10 TC4   1 ATP RIB4 10  0.0  0.0
11 Q5n   1 ATP P1   11 -1.0 72.0
12 Q5n   1 ATP P2   12 -1.0 72.0
13 D     1 ATP P3   13 -2.0 72.0

[ bonds ]
 1  7 b_ADE1_RIB1
 7  8 b_RIB1_RIB2

#ifdef FLEXIBLE 
 7  9 b_RIB1_RIB3
 8  9 b_RIB2_RIB3
 9 11 b_RIB3_P1
11 12 b_P1_P2
12 13 b_P2_P3
#endif

[ constraints ]
 1  2 1 0.268
 1  5 1 0.287
 4  5 1 0.316
 2  5 1 0.353
 2  4 1 0.417

#ifndef FLEXIBLE
 7  9 c_RIB1_RIB3
 8  9 c_RIB2_RIB3
 9 11 c_RIB3_P1
11 12 c_P1_P2
12 13 c_P2_P3
#endif

[ angles ]
 2  1  7 a_ADE2_ADE1_RIB1
 1  7  8 a_ADE1_RIB1_RIB2
 1  7  9 a_ADE1_RIB1_RIB3
 7  9 11 a_RIB1_RIB3_P1
 9 11 12 a_RIB3_P1_P2
11 12 13 a_P1_P2_P3

[ dihedrals ]
 1 7 8 9 d_ADE1_RIB1_RIB2_RIB3
 1  2  5  4 d_ADE1_ADE2_ADE5_ADE4
 2  1  7  9 d_ADE2_ADE1_RIB1_RIB3_1
 2  1  7  9 d_ADE2_ADE1_RIB1_RIB3_2
 2  1  7  9 d_ADE2_ADE1_RIB1_RIB3_3
 2  1  7  9 d_ADE2_ADE1_RIB1_RIB3_4
 2  1  7  9 d_ADE2_ADE1_RIB1_RIB3_5
 1  7  9 11 d_ADE1_RIB1_RIB3_P1
 7  9 11 12 d_RIB1_RIB3_P1_P2
 9 11 12 13 d_RIB3_P1_P2_P3

[ virtual_sitesn ]
 6 2  2  5
10 1  7  8  9

[ virtual_sites3 ]
 3  5  2  4 2 0.52 0.373

[ exclusions ]
 1 2 3 4 5 6 
 2 3 4 5 6
 3 4 5 6
 4 5 6
 5 6
10 7 8 9
 2 1 7 8 9
 1 7 8 9

; This file was generated using the following command:
; /coarse/chris/python_packages/fast_forward/.venv/bin/ff_inter -f mapped.xtc -s mapped.tpr -i ATP.itp -max-dihedral 5 -plots -itp-only
; 

; Please cite the following papers:
; Brasnett, C; Grunewald, L; Wassenaar, T A; Marrink, S J; Grunewald, F;  2025; https://zenodo.org/badge/latestdoi/327071500
; Kroon, P C; Grunewald, F; Barnoud, J; van Tilburg, M; Souza, P C; Wassenaar, T A; Marrink, S J;  elife 2024; 10.7554/elife.90627.2

[ moleculetype ]
CAMP 1

[ atoms ]
 1 SN1   1 CAMP ADE1  1  0.0 45.0
 2 TN3a  1 CAMP ADE2  2  0.0 45.0
 3 TN5a  1 CAMP ADE3  3  0.0  0.0
 4 TP1d  1 CAMP ADE4  4  0.0 45.0
 5 TN3a  1 CAMP ADE5  5  0.0 45.0
 6 TC6   1 CAMP ADE6  6  0.0  0.0
 7 SN6   1 CAMP RIB1  7  0.0 54.0
 8 TP1   1 CAMP RIB2  8  0.0 54.0
 9 SN4ar 1 CAMP RIB3  9  0.0 54.0
10 TC4   1 CAMP RIB4 10  0.0  0.0
11 Q5n   1 CAMP P1   11 -1.0  0

[ bonds ]
 1  7 b_ADE1_RIB1
 7  8 b_RIB1_RIB2

#ifdef FLEXIBLE 
 7  9 b_RIB1_RIB3
 8  9 b_RIB2_RIB3
#endif

[ constraints ]
 1  2 1 0.268
 1  5 1 0.287
 4  5 1 0.316
 2  5 1 0.353
 2  4 1 0.417

#ifndef FLEXIBLE
 7  9 c_RIB1_RIB3
 8  9 c_RIB2_RIB3
#endif

[ angles ]
 2  1  7 a_ADE2_ADE1_RIB1
 1  7  8 a_ADE1_RIB1_RIB2
 1  7  9 a_ADE1_RIB1_RIB3

[ dihedrals ]
 1 7 8 9 d_ADE1_RIB1_RIB2_RIB3
 1  2  5  4 d_ADE1_ADE2_ADE5_ADE4
 2  1  7  9 d_ADE2_ADE1_RIB1_RIB3_1
 2  1  7  9 d_ADE2_ADE1_RIB1_RIB3_2
 2  1  7  9 d_ADE2_ADE1_RIB1_RIB3_3
 2  1  7  9 d_ADE2_ADE1_RIB1_RIB3_4
 2  1  7  9 d_ADE2_ADE1_RIB1_RIB3_5

[ virtual_sitesn ]
 6 2  2  5
10 1  7  8  9

[ virtual_sites3 ]
 3  5  2  4 2 0.52 0.373
; custom vs for doubly bound phosphate
11  7  8  9 4 1.420 0.232 2.204

[ exclusions ]
 1 2 3 4 5 6 
 2 3 4 5 6
 3 4 5 6
 4 5 6
 5 6
10 7 8 9
 2 1 7 8 9
 1 7 8 9

; This file was generated using the following command:
; /coarse/chris/python_packages/fast_forward/.venv/bin/ff_inter -f mapped.xtc -s mapped.tpr -i CAR3.itp -plots -dists -itp-only
; 

; Please cite the following papers:
; Brasnett, C; Grunewald, L; Wassenaar, T A; Marrink, S J; Grunewald, F;  2025; https://zenodo.org/badge/latestdoi/327071500
; Kroon, P C; Grunewald, F; Barnoud, J; van Tilburg, M; Souza, P C; Wassenaar, T A; Marrink, S J;  elife 2024; 10.7554/elife.90627.2

[ moleculetype ]
CAR3 1

[ atoms ]
1 TC1  1 CAR3 C1   1  0.0     
2 SN4a 1 CAR3 CAN1 2  0.0 66.0
3 TC2  1 CAR3 C2   3  0.0  0.0
4 SQ5n 1 CAR3 CAC1 4 -1.0 66.0
5 Q2   1 CAR3 NC3  5  1.0 84.0

[ virtual_sites3 ]
3 2 4 5 4 0.427 0.299 0.561 ; C2_CAN1_CAC1_NC3

[ bonds ]
2 4 1 0.409 6313.785 ; CAN1_CAC1
4 5 1 0.503 5145.214 ; CAC1_NC3

#ifdef FLEXIBLE
1 2 1 0.252 10000 ; C1_CAN1
2 5 1 0.438 10000 ; CAN1_NC3
#endif

[ constraints ]
#ifndef FLEXIBLE
1 2 1 0.252 ; C1_CAN1
2 5 1 0.438 ; CAN1_NC3
#endif

[ angles ]
1 2 4 1  160 100 ; C1_CAN1_CAC1
1 2 5 10 150 70 ; C1_CAN1_NC3
2 4 5 10 55.839 60 ; CAN1_CAC1_NC3

[ dihedrals ]
1 4 5 2 2 0 25 ; C1_CAC1_NC3_CAN1

[ exclusions ]
1 2 3 4 5
2 3 4 5
3 4 5
4 5

; This file was generated using the following command:
; /coarse/chris/python_packages/fast_forward/.venv/bin/ff_inter -f mapped.xtc -s mapped.tpr -i CAR4.itp -plots -dists
; 

; Please cite the following papers:
; Kroon, P C; Grunewald, F; Barnoud, J; van Tilburg, M; Souza, P C; Wassenaar, T A; Marrink, S J;  elife 2024; 10.7554/elife.90627.2
; Brasnett, C; Grunewald, L; Wassenaar, T A; Marrink, S J; Grunewald, F;  2025; https://zenodo.org/badge/latestdoi/327071500

[ moleculetype ]
CAR4 1

[ atoms ]
1 SC1  1 CAR4 C1   1  0.0     
2 SN4a 1 CAR4 CAN1 2  0.0 66.0
3 TC2  1 CAR4 C2   3  0.0  0.0
4 SQ5n 1 CAR4 CAC1 4 -1.0 66.0
5 Q2   1 CAR4 NC3  5  1.0 84.0

[ virtual_sites3 ]
3 2 4 5 4 0.427 0.299 0.561 ; C2_CAN1_CAC1_NC3

[ bonds ]
2 4 1 0.409 6313.785 
4 5 1 0.503 5145.214 
1 2 1 0.296 3310.876 ; C1_CAN1

#ifdef FLEXIBLE
2 5 1 0.438 10000 
#endif

[ constraints ]
#ifndef FLEXIBLE
2 5 1 0.438 
#endif

[ angles ]
1 2 4 10 148.111 20 ; C1_CAN1_CAC1
1 2 5 10 80 150 ; C1_CAN1_NC3
2 4 5 10 55.839 60 

[ dihedrals ]
1 4 5 2 2 0 25 

[ exclusions ]
1 2 3 4 5
2 3 4 5
3 4 5
4 5

; This file was generated using the following command:
; /coarse/chris/python_packages/fast_forward/.venv/bin/ff_inter -f mapped.xtc -s mapped.tpr -i CAR5.itp -plots -dists
; 

; Please cite the following papers:
; Kroon, P C; Grunewald, F; Barnoud, J; van Tilburg, M; Souza, P C; Wassenaar, T A; Marrink, S J;  elife 2024; 10.7554/elife.90627.2
; Brasnett, C; Grunewald, L; Wassenaar, T A; Marrink, S J; Grunewald, F;  2025; https://zenodo.org/badge/latestdoi/327071500

[ moleculetype ]
CAR5 1

[ atoms ]
1 C1   1 CAR5 C1   1  0.0     
2 SN4a 1 CAR5 CAN1 2  0.0 66.0
3 TC2  1 CAR5 C2   3  0.0  0.0
4 SQ5n 1 CAR5 CAC1 4 -1.0 66.0
5 Q2   1 CAR5 NC3  5  1.0 84.0

[ virtual_sites3 ]
3 2 4 5 4 0.427 0.299 0.561 ; C2_CAN1_CAC1_NC3

[ bonds ]
2 4 1 0.409 6313.785 
4 5 1 0.503 5145.214 
1 2 1 0.349 3330.738 ; C1_CAN1

#ifdef FLEXIBLE
2 5 1 0.438 10000 
#endif

[ constraints ]
#ifndef FLEXIBLE
2 5 1 0.438 
#endif

[ angles ]
1 2 4 10 146.363 20 ; C1_CAN1_CAC1
1 2 5 10 80 150 ; C1_CAN1_NC3
2 4 5 10 55.839 60 

[ dihedrals ]
1 4 5 2 2 0 25 

[ exclusions ]
1 2 3 4 5
2 3 4 5
3 4 5
4 5

; This file was generated using the following command:
; /coarse/chris/python_packages/fast_forward/.venv/bin/ff_inter -f mapped.xtc -s mapped.tpr -i CART.itp -plots -dists
; 

; Please cite the following papers:
; Kroon, P C; Grunewald, F; Barnoud, J; van Tilburg, M; Souza, P C; Wassenaar, T A; Marrink, S J;  elife 2024; 10.7554/elife.90627.2
; Brasnett, C; Grunewald, L; Wassenaar, T A; Marrink, S J; Grunewald, F;  2025; https://zenodo.org/badge/latestdoi/327071500

[ moleculetype ]
CART 1

[ atoms ]
1 Q2   1 CART NC3  1  1.0 72.0
2 SP1  1 CART ALC1 2  0.0 54.0
3 SQ5n 1 CART CAC1 3 -1.0 54.0

[ bonds ]
1 2 1 0.35 10000 ; NC3_ALC1
2 3 1 0.250 5000 ; ALC1_CAC1

[ angles ]
1 2 3 10 113.5 6.407 ; NC3_ALC1_CAC1


; This file was generated using the following command:
; /coarse/chris/python_packages/fast_forward/.venv/bin/ff_inter -f mapped.xtc -s mapped.tpr -i CASP.itp -plots -dists
; 

; Please cite the following papers:
; Kroon, P C; Grunewald, F; Barnoud, J; van Tilburg, M; Souza, P C; Wassenaar, T A; Marrink, S J;  elife 2024; 10.7554/elife.90627.2
; Brasnett, C; Grunewald, L; Wassenaar, T A; Marrink, S J; Grunewald, F;  2025; https://zenodo.org/badge/latestdoi/327071500

[ moleculetype ]
CASP 1

[ atoms ]
1 SP5  1 CASP AMD1 1  0.0 54.0
2 SN4  1 CASP AMN1 2  0.0 54.0
3 SQ5n 1 CASP CAC2 3 -1.0 54.0
4 SQ5n 1 CASP CAC1 4 -1.0 54.0

[ bonds ]
1 2 1 0.341 10000 ; AMD1_AMN1
2 3 1 0.242 10000 ; AMN1_CAC1
2 4 1 0.232 10000 ; AMN1_CAC2

[ angles ]
1 2 3 10 99.627 51.586 ; AMD1_AMN1_CAC2
1 2 4 10 106.224 54.389 ; AMD1_AMN1_CAC1
3 2 4 10 145.601 100 ; CAC2_AMN1_CAC1


; This file was generated using the following command:
; /coarse/chris/python_packages/fast_forward/.venv/bin/ff_inter -f mapped.xtc -s mapped.tpr -i CMP.itp -max-dihedral 5 -plots -itp-only -dists
; 

; Please cite the following papers:
; Brasnett, C; Grunewald, L; Wassenaar, T A; Marrink, S J; Grunewald, F;  2025; https://zenodo.org/badge/latestdoi/327071500
; Kroon, P C; Grunewald, F; Barnoud, J; van Tilburg, M; Souza, P C; Wassenaar, T A; Marrink, S J;  elife 2024; 10.7554/elife.90627.2

[ moleculetype ]
CDPH 1

[ atoms ]
1 SN1   1 CDPH CYO1 1  0.0 45.0
2 TP1a  1 CDPH CYO2 2  0.0 45.0
3 TN5a  1 CDPH CYO3 3  0.0  0.0
4 TP1d  1 CDPH CYO4 4  0.0 45.0
5 SN6   1 CDPH RIB1 5  0.0 54.0
6 TP1   1 CDPH RIB2 6  0.0 54.0
7 SN4ar 1 CDPH RIB3 7  0.0 54.0
8 TC4   1 CDPH RIB4 8  0.0  0.0
9 Q5n   1 CDPH P1   9 -1.0 72.0
10 Q5n  1 CDPH P2  10 -1.0 72.0

[ bonds ]
 1  5 b_CYO1_RIB1
 5  6 b_RIB1_RIB2

#ifdef FLEXIBLE
 5  7 b_RIB1_RIB3
 6  7 b_RIB2_RIB3
 7  9 b_RIB3_P1
 9 10 b_H_P1_P2
#endif

[ constraints ]
1 2 1 0.255
1 4 1 0.340
2 4 1 0.412

#ifndef FLEXIBLE
 5  7 c_RIB1_RIB3
 6  7 c_RIB2_RIB3
 7  9 c_RIB3_P1
 9 10 c_H_P1_P2
#endif

[ angles ]
 2  1  5 a_CYO2_CYO1_RIB1
 4  1  5 a_CYO4_CYO1_RIB1
 1  5  6 a_CYO1_RIB1_RIB2
 1  5  7 a_CYO1_RIB1_RIB3
 5  7  9 a_RIB1_RIB3_P1
 7  9 10 a_RIB3_P1_P2

[ virtual_sitesn ]
3 2 2 4
8 1 5 6 7

[ dihedrals ]
 1 5 6 7 d_CYO1_RIB1_RIB2_RIB3
 1  5  7  9 d_CYO1_RIB1_RIB3_P1
 2  1  5  7 d_CYO2_CYO1_RIB1_RIB3_1
 2  1  5  7 d_CYO2_CYO1_RIB1_RIB3_2
 2  1  5  7 d_CYO2_CYO1_RIB1_RIB3_3
 2  1  5  7 d_CYO2_CYO1_RIB1_RIB3_4
 2  1  5  7 d_CYO2_CYO1_RIB1_RIB3_5
 5  7  9 10 d_RIB1_RIB3_P1_P2

[ exclusions ]
1 2 3 4 
2 3 4 
3 4 
8 5 6 7 
2 1 5 6 7
1 5 6 7 

; This file was generated using the following command:
; /coarse/chris/python_packages/fast_forward/.venv/bin/ff_inter -f mapped.xtc -s mapped.tpr -i CMP.itp -max-dihedral 5 -plots -itp-only -dists
; 

; Please cite the following papers:
; Brasnett, C; Grunewald, L; Wassenaar, T A; Marrink, S J; Grunewald, F;  2025; https://zenodo.org/badge/latestdoi/327071500
; Kroon, P C; Grunewald, F; Barnoud, J; van Tilburg, M; Souza, P C; Wassenaar, T A; Marrink, S J;  elife 2024; 10.7554/elife.90627.2

[ moleculetype ]
CDP 1

[ atoms ]
1 SN1   1 CDP CYO1 1  0.0 45.0
2 TP1a  1 CDP CYO2 2  0.0 45.0
3 TN5a  1 CDP CYO3 3  0.0  0.0
4 TP1d  1 CDP CYO4 4  0.0 45.0
5 SN6   1 CDP RIB1 5  0.0 54.0
6 TP1   1 CDP RIB2 6  0.0 54.0
7 SN4ar 1 CDP RIB3 7  0.0 54.0
8 TC4   1 CDP RIB4 8  0.0  0.0
9 Q5n   1 CDP P1   9 -1.0 72.0
10 D  1 CDP P2  10 -1.0 72.0

[ bonds ]
 1  5 b_CYO1_RIB1
 5  6 b_RIB1_RIB2

#ifdef FLEXIBLE
 5  7 b_RIB1_RIB3
 6  7 b_RIB2_RIB3
 7  9 b_RIB3_P1
 9 10 b_P1_P2
#endif

[ constraints ]
1 2 1 0.255
1 4 1 0.340
2 4 1 0.412

#ifndef FLEXIBLE
 5  7 c_RIB1_RIB3
 6  7 c_RIB2_RIB3
 7  9 c_RIB3_P1
 9 10 c_P1_P2
#endif

[ angles ]
 2  1  5 a_CYO2_CYO1_RIB1
 4  1  5 a_CYO4_CYO1_RIB1
 1  5  6 a_CYO1_RIB1_RIB2
 1  5  7 a_CYO1_RIB1_RIB3
 5  7  9 a_RIB1_RIB3_P1
 7  9 10 a_RIB3_P1_P2

[ virtual_sitesn ]
3 2 2 4
8 1 5 6 7

[ dihedrals ]
 1 5 6 7 d_CYO1_RIB1_RIB2_RIB3
 1  5  7  9 d_CYO1_RIB1_RIB3_P1
 2  1  5  7 d_CYO2_CYO1_RIB1_RIB3_1
 2  1  5  7 d_CYO2_CYO1_RIB1_RIB3_2
 2  1  5  7 d_CYO2_CYO1_RIB1_RIB3_3
 2  1  5  7 d_CYO2_CYO1_RIB1_RIB3_4
 2  1  5  7 d_CYO2_CYO1_RIB1_RIB3_5
 5  7  9 10 d_RIB1_RIB3_P1_P2

[ exclusions ]
1 2 3 4 
2 3 4 
3 4 
8 5 6 7 
2 1 5 6 7
1 5 6 7 

; This file was generated using the following command:
; /coarse/chris/python_packages/fast_forward/.venv/bin/ff_inter -f mapped.xtc -s mapped.tpr -i CHT.itp -plots -dists
; 

; Please cite the following papers:
; Kroon, P C; Grunewald, F; Barnoud, J; van Tilburg, M; Souza, P C; Wassenaar, T A; Marrink, S J;  elife 2024; 10.7554/elife.90627.2
; Brasnett, C; Grunewald, L; Wassenaar, T A; Marrink, S J; Grunewald, F;  2025; https://zenodo.org/badge/latestdoi/327071500

[ moleculetype ]
CHT 1

[ atoms ]
1 SP1 1 CHT ALC1 1 0.0 36.0
2 Q2  1 CHT NC3  2 1.0 72.0

[ bonds ]
1 2 1 0.293 15000 ; NC3_ALC1


; This file was generated using the following command:
; /coarse/chris/python_packages/fast_forward/.venv/bin/ff_inter -f mapped.xtc -s mapped.tpr -i CIT.itp -plots -dists -max-dihedral 5 -constraints 50000
; 

; Please cite the following papers:
; Kroon, P C; Grunewald, F; Barnoud, J; van Tilburg, M; Souza, P C; Wassenaar, T A; Marrink, S J;  elife 2024; 10.7554/elife.90627.2
; Brasnett, C; Grunewald, L; Wassenaar, T A; Marrink, S J; Grunewald, F;  2025; https://zenodo.org/badge/latestdoi/327071500

[ moleculetype ]
CIT 1

[ atoms ]
1 SQ5n 1 CIT CAC1 1 -1.0
2 TQ4p 1 CIT AMC1 2  1.0
3 TC1  1 CIT C1   3  0.0
4 TN4  1 CIT AMN1 4  0.0
5 SP5  1 CIT AMD1 5  0.0

[ bonds ]
2 3 1 0.249 15000 ; AMC1_C1
3 4 1 0.224 15000 ; C1_AMN1
4 5 1 0.277 15000 ; AMN1_AMD1

#ifdef FLEXIBLE
1 2 1 0.284 10000 ; CAC1_AMC1
#endif

[ constraints ]
#ifndef FLEXIBLE
1 2 1 0.284 ; CAC1_AMC1
#endif

[ angles ]
1 2 3 1 74.048 100 ; CAC1_AMC1_C1
2 3 4 1 155.876 100 ; AMC1_C1_AMN1
3 4 5 1 119.732 35.655 ; C1_AMN1_AMD1

[ exclusions ]
1 2 3 4 5
2 3 4 5
3 4 5
4 5

; This file was generated using the following command:
; /coarse/chris/python_packages/fast_forward/.venv/bin/ff_inter -f mapped.xtc -s mapped.tpr -i CMP.itp -max-dihedral 5 -plots -itp-only -dists
; 

; Please cite the following papers:
; Brasnett, C; Grunewald, L; Wassenaar, T A; Marrink, S J; Grunewald, F;  2025; https://zenodo.org/badge/latestdoi/327071500
; Kroon, P C; Grunewald, F; Barnoud, J; van Tilburg, M; Souza, P C; Wassenaar, T A; Marrink, S J;  elife 2024; 10.7554/elife.90627.2

[ moleculetype ]
CMP 1

[ atoms ]
1 SN1   1 CMP CYO1 1  0.0 45.0
2 TP1a  1 CMP CYO2 2  0.0 45.0
3 TN5a  1 CMP CYO3 3  0.0  0.0
4 TP1d  1 CMP CYO4 4  0.0 45.0
5 SN6   1 CMP RIB1 5  0.0 54.0
6 TP1   1 CMP RIB2 6  0.0 54.0
7 SN4ar 1 CMP RIB3 7  0.0 54.0
8 TC4   1 CMP RIB4 8  0.0  0.0
9 D   1 CMP P1   9 -1.0 72.0

[ bonds ]
 1  5 b_CYO1_RIB1
 5  6 b_RIB1_RIB2

#ifdef FLEXIBLE
 5  7 b_RIB1_RIB3
 6  7 b_RIB2_RIB3
 7  9 b_RIB3_P1
#endif

[ constraints ]
1 2 1 0.255
1 4 1 0.340
2 4 1 0.412

#ifndef FLEXIBLE
 5  7 c_RIB1_RIB3
 6  7 c_RIB2_RIB3
 7  9 c_RIB3_P1
#endif

[ angles ]
 2  1  5 a_CYO2_CYO1_RIB1
 4  1  5 a_CYO4_CYO1_RIB1
 1  5  6 a_CYO1_RIB1_RIB2
 1  5  7 a_CYO1_RIB1_RIB3
 5  7  9 a_RIB1_RIB3_P1

[ virtual_sitesn ]
3 2 2 4
8 1 5 6 7

[ dihedrals ]
 1 5 6 7 d_CYO1_RIB1_RIB2_RIB3
 1  5  7  9 d_CYO1_RIB1_RIB3_P1
 2  1  5  7 d_CYO2_CYO1_RIB1_RIB3_1
 2  1  5  7 d_CYO2_CYO1_RIB1_RIB3_2
 2  1  5  7 d_CYO2_CYO1_RIB1_RIB3_3
 2  1  5  7 d_CYO2_CYO1_RIB1_RIB3_4
 2  1  5  7 d_CYO2_CYO1_RIB1_RIB3_5

[ exclusions ]
1 2 3 4 
2 3 4 
3 4 
8 5 6 7 
2 1 5 6 7
1 5 6 7 

; This file was generated using the following command:
; /coarse/chris/python_packages/fast_forward/.venv/bin/ff_inter -f mapped.xtc -s mapped.tpr -i CNO.itp -max-dihedral 5 -plots -dists
; 

; Please cite the following papers:
; Kroon, P C; Grunewald, F; Barnoud, J; van Tilburg, M; Souza, P C; Wassenaar, T A; Marrink, S J;  elife 2024; 10.7554/elife.90627.2
; Brasnett, C; Grunewald, L; Wassenaar, T A; Marrink, S J; Grunewald, F;  2025; https://zenodo.org/badge/latestdoi/327071500

[ moleculetype ]
CNO 1

[ atoms ]
1 SQ4p 1 CNO NH3  1  1.0 
2 N3   1 CNO AMD1 2  0.0 
3 SQ5n 1 CNO CAC1 3 -1.0 
4 SC3  1 CNO C1   4  0.0 
5 TN1a 1 CNO AMD2 5  0.0 

[ bonds ]
2 4 1 0.291 2692.563 ; AMD1_C1

#ifdef FLEXIBLE
1 2 1 0.384 10000 ; NH3_AMD1
2 3 1 0.282 10000 ; AMD1_CAC1
4 5 1 0.287 10000 ; C1_AMD2
#endif

[ constraints ]
#ifndef FLEXIBLE
1 2 1 0.384 ; NH3_AMD1
2 3 1 0.282 ; AMD1_CAC1
4 5 1 0.287 ; C1_AMD2
#endif

[ angles ]
1 2 3 10 138.896 116.015 ; NH3_AMD1_CAC1
1 2 4 10 135.366 101.584 ; NH3_AMD1_C1
2 4 5 10 110.605 57.231 ; AMD1_C1_AMD2
3 2 4 10 77.011 52.811 ; CAC1_AMD1_C1

[ dihedrals ]
1 2 4 5 2 -50 4.695 ; NH3_AMD1_C1_AMD2
3 2 4 5 2 151.089 6.824 ; CAC1_AMD1_C1_AMD2

[ exclusions ]
1 2 3 4 5
2 3 4 5
3 4 5
4 5

; This file was generated using the following command:
; /Users/chrisbrasnett/virtualenvs/ffwd_env/bin/ff_inter -f mapped.xtc -s mapped.tpr -i COA.itp -max-dihedral 5 -itp-only -plots -dists
; 

; Please cite the following papers:
; Kroon, P C; Grunewald, F; Barnoud, J; van Tilburg, M; Souza, P C; Wassenaar, T A; Marrink, S J;  elife 2024; 10.7554/elife.90627.2
; Brasnett, C; Grunewald, L; Wassenaar, T A; Marrink, S J; Grunewald, F;  2025; https://zenodo.org/badge/latestdoi/327071500

[ moleculetype ]
COA 1

[ atoms ]
 1 SN1   1 COA ADE1  1  0.0 45.0
 2 TN3a  1 COA ADE2  2  0.0 45.0
 3 TN5a  1 COA ADE3  3  0.0  0.0
 4 TP1d  1 COA ADE4  4  0.0 45.0
 5 TN3a  1 COA ADE5  5  0.0 45.0
 6 TC6   1 COA ADE6  6  0.0  0.0
 7 TC3   1 COA RIB1  7  0.0 60.0
 8 TP1   1 COA RIB2  8  0.0 60.0
 9 SN4ar 1 COA RIB3  9  0.0 78.0
10 TC4   1 COA RIB4 10  0.0  0.0
11 Q5n   1 COA P1   11 -1.0 72.0
12 Q5n   1 COA P2   12 -1.0 72.0
13 D     1 COA P4   13 -2.0  0.0
14 C2    1 COA C1   14  0.0     
15 P4    1 COA ALC1 15  0.0     
16 SN2   1 COA AMN1 16  0.0     
17 P2    1 COA AMD1 17  0.0     
18 TC6   1 COA SUL1 18  0.0     

[ bonds ]
 1  7 b_ADE1_RIB1
 7  8 b_RIB1_RIB2
15 16 1 0.349 5513.261 ; ALC1_AMN1
16 17 1 0.364 7339.193 ; AMN1_AMD1
17 18 1 0.265 5244.192 ; AMD1_SUL1

#ifdef FLEXIBLE
 7  9 b_RIB1_RIB3
 8  9 b_RIB2_RIB3
 9 11 b_RIB3_P1
11 12 b_P1_P2
14 15 1 0.267 10000 ; C1_ALC1
12 14 1 0.397 10000 ; P2_C1
#endif

[ constraints ]
 1  2 1 0.268
 1  5 1 0.287
 2  5 1 0.353
 2  4 1 0.417
 4  5 1 0.316

#ifndef FLEXIBLE
 7  9 c_RIB1_RIB3
 8  9 c_RIB2_RIB3
 9 11 c_RIB3_P1
11 12 c_P1_P2
14 15 1 0.267 ; C1_ALC1
12 14 1 0.397 ; P2_C1
#endif

[ angles ]
 2  1  7 a_ADE2_ADE1_RIB1
 1  7  8 a_ADE1_RIB1_RIB2
 1  7  9 a_ADE1_RIB1_RIB3
 7  9 11 a_RIB1_RIB3_P1
 9 11 12 a_RIB3_P1_P2
11 12 14 10 122.898 50 ; P1_P2_C1
12 14 15 10 83.186 50 ; P2_C1_ALC1
14 15 16 10 114.286 13.575 ; C1_ALC1_AMN1
15 16 17 10 136.5 16.296 ; ALC1_AMN1_AMD1
16 17 18 10 129.666 50 ; AMN1_AMD1_SUL1

[ virtual_sitesn ]
 6 2  2  5
10 1  7  8  9

[ dihedrals ]
 1  2  5  4 d_ADE1_ADE2_ADE5_ADE4
 1  7  9 11 d_ADE1_RIB1_RIB3_P1
 2  1  7  9 d_ADE2_ADE1_RIB1_RIB3_1
 2  1  7  9 d_ADE2_ADE1_RIB1_RIB3_2
 2  1  7  9 d_ADE2_ADE1_RIB1_RIB3_3
 2  1  7  9 d_ADE2_ADE1_RIB1_RIB3_4
 2  1  7  9 d_ADE2_ADE1_RIB1_RIB3_5
 7  9 11 12 d_RIB1_RIB3_P1_P2
 1  7  8  9 d_ADE1_RIB1_RIB2_RIB3
11 12 14 15 2 -66.177 8 ; P1_P2_C1_ALC1
 9 11 12 14 2 -8.365 4.064 ; RIB3_P1_P2_C1

; ALC1_AMN1_AMD1_SUL1
;15 16 17 18 9 0.908 -1.955 1 ; ALC1_AMN1_AMD1_SUL1
15 16 17 18 1 0 -1 3 ; ALC1_AMN1_AMD1_SUL1

; C1_ALC1_AMN1_AMD1
14 15 16 17 1 -58.25 -2.129 1 ; C1_ALC1_AMN1_AMD1

; P2_C1_ALC1_AMN1
12 14 15 16 1 123.393 -2.306 1 ; P2_C1_ALC1_AMN1

[ virtual_sites3 ]
 3  5  2  4 2 0.52 0.373
13 7 8 9 1 2.039 -0.722 ; P4_RIB1_RIB2_RIB3

[ exclusions ]
 1  2  3  4  5  6 
 2  3  4  5  6 
 3  4  5  6 
 4  5  6 
 5  6 
10  7  8  9 
13  7  8  9 
11 12 14 15
12 14 15
14 15

; This file was generated using the following command:
; /coarse/chris/python_packages/fast_forward/.venv/bin/ff_inter -f mapped.xtc -s mapped.tpr -i CRE.itp -plots -dists
; 

; Please cite the following papers:
; Kroon, P C; Grunewald, F; Barnoud, J; van Tilburg, M; Souza, P C; Wassenaar, T A; Marrink, S J;  elife 2024; 10.7554/elife.90627.2
; Brasnett, C; Grunewald, L; Wassenaar, T A; Marrink, S J; Grunewald, F;  2025; https://zenodo.org/badge/latestdoi/327071500

[ moleculetype ]
CRE 1

[ atoms ]
1 SQ5n 1 CRE CAC1 1 -1.0 54.0
2 SN3a 1 CRE AMN1 2  0.0 54.0
3 SQ2p 1 CRE GUA1 3  1.0 54.0

[ bonds ]
1 2 1 0.322 10000 ; CAC1_AMN1
2 3 1 0.294 15000 ; AMN1_GUA1

[ angles ]
1 2 3 10 75 100 ; CAC1_AMN1_GUA1


; This file was generated using the following command:
; /coarse/chris/python_packages/fast_forward/.venv/bin/ff_inter -f mapped.xtc -s mapped.tpr -i CREN.itp -plots -dists
; 

; Please cite the following papers:
; Kroon, P C; Grunewald, F; Barnoud, J; van Tilburg, M; Souza, P C; Wassenaar, T A; Marrink, S J;  elife 2024; 10.7554/elife.90627.2
; Brasnett, C; Grunewald, L; Wassenaar, T A; Marrink, S J; Grunewald, F;  2025; https://zenodo.org/badge/latestdoi/327071500

[ moleculetype ]
CREN 1

[ atoms ]
1 SN3a 1 CREN AMN1 1 0.0 54.0
2 SP3  1 CREN AMD1 2 0.0 54.0
3 TN2  1 CREN IMI1 3 0.0 36.0

[ bonds ]
#ifdef FLEXIBLE
1 2 1 0.321 10000 ; AMN1_AMD1
2 3 1 0.26 10000 ; AMD1_IMI1
3 1 1 0.296 10000 ; IMI1_AMN1
#endif

[ constraints ]
#ifndef FLEXIBLE
1 2 1 0.321 ; AMN1_AMD1
2 3 1 0.26 ; AMD1_IMI1
3 1 1 0.296 ; IMI1_AMN1
#endif

[ angles ]
1 2 3 10 60.317 66.434 ; AMN1_AMD1_IMI1


; This file was generated using the following command:
; /coarse/chris/python_packages/fast_forward/.venv/bin/ff_inter -f mapped.xtc -s mapped.tpr -i CMP.itp -max-dihedral 5 -plots -itp-only -dists
; 

; Please cite the following papers:
; Brasnett, C; Grunewald, L; Wassenaar, T A; Marrink, S J; Grunewald, F;  2025; https://zenodo.org/badge/latestdoi/327071500
; Kroon, P C; Grunewald, F; Barnoud, J; van Tilburg, M; Souza, P C; Wassenaar, T A; Marrink, S J;  elife 2024; 10.7554/elife.90627.2

[ moleculetype ]
CTPH 1

[ atoms ]
1 SN1   1 CTPH CYO1 1  0.0 45.0
2 TP1a  1 CTPH CYO2 2  0.0 45.0
3 TN5a  1 CTPH CYO3 3  0.0  0.0
4 TP1d  1 CTPH CYO4 4  0.0 45.0
5 SN6   1 CTPH RIB1 5  0.0 54.0
6 TP1   1 CTPH RIB2 6  0.0 54.0
7 SN4ar 1 CTPH RIB3 7  0.0 54.0
8 TC4   1 CTPH RIB4 8  0.0  0.0
9 Q5n   1 CTPH P1   9 -1.0 72.0
10 Q5n  1 CTPH P2  10 -1.0 72.0
11 Q5n  1 CTPH P3  11 -1.0 72.0

[ bonds ]
 1  5 b_CYO1_RIB1
 5  6 b_RIB1_RIB2

#ifdef FLEXIBLE
 5  7 b_RIB1_RIB3
 6  7 b_RIB2_RIB3
 7  9 b_RIB3_P1
 9 10 b_H_P1_P2
10 11 b_H_P2_P3
#endif

[ constraints ]
1 2 1 0.255
1 4 1 0.340
2 4 1 0.412

#ifndef FLEXIBLE
 5  7 c_RIB1_RIB3
 6  7 c_RIB2_RIB3
 7  9 c_RIB3_P1
 9 10 c_H_P1_P2
10 11 c_H_P2_P3
#endif

[ angles ]
 2  1  5 a_CYO2_CYO1_RIB1
 4  1  5 a_CYO4_CYO1_RIB1
 1  5  6 a_CYO1_RIB1_RIB2
 1  5  7 a_CYO1_RIB1_RIB3
 5  7  9 a_RIB1_RIB3_P1
 7  9 10 a_RIB3_P1_P2
 9 10 11 a_P1_P2_P3

[ virtual_sitesn ]
3 2 2 4
8 1 5 6 7

[ dihedrals ]
 1 5 6 7 d_CYO1_RIB1_RIB2_RIB3
 1  5  7  9 d_CYO1_RIB1_RIB3_P1
 2  1  5  7 d_CYO2_CYO1_RIB1_RIB3_1
 2  1  5  7 d_CYO2_CYO1_RIB1_RIB3_2
 2  1  5  7 d_CYO2_CYO1_RIB1_RIB3_3
 2  1  5  7 d_CYO2_CYO1_RIB1_RIB3_4
 2  1  5  7 d_CYO2_CYO1_RIB1_RIB3_5
 5  7  9 10 d_RIB1_RIB3_P1_P2
 7  9 10 11 d_RIB3_P1_P2_P3

[ exclusions ]
1 2 3 4 
2 3 4 
3 4 
8 5 6 7 
2 1 5 6 7
1 5 6 7 

; This file was generated using the following command:
; /coarse/chris/python_packages/fast_forward/.venv/bin/ff_inter -f mapped.xtc -s mapped.tpr -i CMP.itp -max-dihedral 5 -plots -itp-only -dists
; 

; Please cite the following papers:
; Brasnett, C; Grunewald, L; Wassenaar, T A; Marrink, S J; Grunewald, F;  2025; https://zenodo.org/badge/latestdoi/327071500
; Kroon, P C; Grunewald, F; Barnoud, J; van Tilburg, M; Souza, P C; Wassenaar, T A; Marrink, S J;  elife 2024; 10.7554/elife.90627.2

[ moleculetype ]
CTP 1

[ atoms ]
1 SN1   1 CTP CYO1 1  0.0 45.0
2 TP1a  1 CTP CYO2 2  0.0 45.0
3 TN5a  1 CTP CYO3 3  0.0  0.0
4 TP1d  1 CTP CYO4 4  0.0 45.0
5 SN6   1 CTP RIB1 5  0.0 54.0
6 TP1   1 CTP RIB2 6  0.0 54.0
7 SN4ar 1 CTP RIB3 7  0.0 54.0
8 TC4   1 CTP RIB4 8  0.0  0.0
9 Q5n   1 CTP P1   9 -1.0 72.0
10 Q5n  1 CTP P2  10 -1.0 72.0
11 D    1 CTP P3  11 -2.0 72.0

[ bonds ]
 1  5 b_CYO1_RIB1
 5  6 b_RIB1_RIB2

#ifdef FLEXIBLE
 5  7 b_RIB1_RIB3
 6  7 b_RIB2_RIB3
 7  9 b_RIB3_P1
 9 10 b_P1_P2
10 11 b_P2_P3
#endif

[ constraints ]
1 2 1 0.255
1 4 1 0.340
2 4 1 0.412

#ifndef FLEXIBLE
 5  7 c_RIB1_RIB3
 6  7 c_RIB2_RIB3
 7  9 c_RIB3_P1
 9 10 c_P1_P2
10 11 c_P2_P3
#endif

[ angles ]
 2  1  5 a_CYO2_CYO1_RIB1
 4  1  5 a_CYO4_CYO1_RIB1
 1  5  6 a_CYO1_RIB1_RIB2
 1  5  7 a_CYO1_RIB1_RIB3
 5  7  9 a_RIB1_RIB3_P1
 7  9 10 a_RIB3_P1_P2
 9 10 11 a_P1_P2_P3

[ virtual_sitesn ]
3 2 2 4
8 1 5 6 7

[ dihedrals ]
 1 5 6 7 d_CYO1_RIB1_RIB2_RIB3
 1  5  7  9 d_CYO1_RIB1_RIB3_P1
 2  1  5  7 d_CYO2_CYO1_RIB1_RIB3_1
 2  1  5  7 d_CYO2_CYO1_RIB1_RIB3_2
 2  1  5  7 d_CYO2_CYO1_RIB1_RIB3_3
 2  1  5  7 d_CYO2_CYO1_RIB1_RIB3_4
 2  1  5  7 d_CYO2_CYO1_RIB1_RIB3_5
 5  7  9 10 d_RIB1_RIB3_P1_P2
 7  9 10 11 d_RIB3_P1_P2_P3

[ exclusions ]
1 2 3 4 
2 3 4 
3 4 
8 5 6 7 
2 1 5 6 7
1 5 6 7 

; This file was generated using the following command:
; /coarse/chris/python_packages/fast_forward/.venv/bin/ff_inter -f mapped.xtc -s mapped.tpr -i CYD.itp -max-dihedral 5 -plots -itp-only -dists
; 

; Please cite the following papers:
; Brasnett, C; Grunewald, L; Wassenaar, T A; Marrink, S J; Grunewald, F;  2025; https://zenodo.org/badge/latestdoi/327071500
; Kroon, P C; Grunewald, F; Barnoud, J; van Tilburg, M; Souza, P C; Wassenaar, T A; Marrink, S J;  elife 2024; 10.7554/elife.90627.2

[ moleculetype ]
CYD 1

[ atoms ]
1 SN1   1 CYD CYO1 1  0.0 45.0
2 TP1a  1 CYD CYO2 2  0.0 45.0
3 TN5a  1 CYD CYO3 3  0.0  0.0
4 TP1d  1 CYD CYO4 4  0.0 45.0
5 SN6   1 CYD RIB1 5  0.0 54.0
6 TP1   1 CYD RIB2 6  0.0 54.0
7 SN4ar 1 CYD RIB3 7  0.0 54.0
8 TC4   1 CYD RIB4 8  0.0  0.0

[ bonds ]
 1  5 b_CYO1_RIB1
 5  6 b_RIB1_RIB2

#ifdef FLEXIBLE
 5  7 b_RIB1_RIB3
 6  7 b_RIB2_RIB3
#endif

[ constraints ]
1 2 1 0.255
1 4 1 0.340
2 4 1 0.412

#ifndef FLEXIBLE
 5  7 c_RIB1_RIB3
 6  7 c_RIB2_RIB3
#endif

[ angles ]
 2  1  5 a_CYO2_CYO1_RIB1
 4  1  5 a_CYO4_CYO1_RIB1
 1  5  6 a_CYO1_RIB1_RIB2
 1  5  7 a_CYO1_RIB1_RIB3

[ virtual_sitesn ]
3 2 2 4
8 1 5 6 7

[ dihedrals ]
 1 5 6 7 d_CYO1_RIB1_RIB2_RIB3
 2  1  5  6 d_CYO2_CYO1_RIB1_RIB3_1
 2  1  5  6 d_CYO2_CYO1_RIB1_RIB3_2
 2  1  5  6 d_CYO2_CYO1_RIB1_RIB3_3
 2  1  5  6 d_CYO2_CYO1_RIB1_RIB3_4
 2  1  5  6 d_CYO2_CYO1_RIB1_RIB3_5

[ exclusions ]
1 2 3 4 
2 3 4 
3 4 
8 5 6 7 
2 1 5 6 7
1 5 6 7 

; This file was generated using the following command:
; /coarse/chris/python_packages/fast_forward/.venv/bin/ff_inter -f mapped.xtc -s mapped.tpr -i CYO.itp -max-dihedral 5 -plots -itp-only -dists
; 

; Please cite the following papers:
; Brasnett, C; Grunewald, L; Wassenaar, T A; Marrink, S J; Grunewald, F;  2025; https://zenodo.org/badge/latestdoi/327071500
; Kroon, P C; Grunewald, F; Barnoud, J; van Tilburg, M; Souza, P C; Wassenaar, T A; Marrink, S J;  elife 2024; 10.7554/elife.90627.2

[ moleculetype ]
CYO 1

[ atoms ]
1 SN1   1 CYO CYO1 1  0.0 45.0
2 TP1a  1 CYO CYO2 2  0.0 45.0
3 TN5a  1 CYO CYO3 3  0.0  0.0
4 TP1d  1 CYO CYO4 4  0.0 45.0

[ constraints ]
1 2 1 0.255
1 4 1 0.340
2 4 1 0.412

[ virtual_sitesn ]
3 2 2 4

[ exclusions ]
1 2 3 4 
2 3 4
3 4

; This file was generated using the following command:
; /coarse/chris/python_packages/fast_forward/.venv/bin/ff_inter -f mapped.xtc -s mapped.tpr -i CYST.itp -plots -dists
; 

; Please cite the following papers:
; Brasnett, C; Grunewald, L; Wassenaar, T A; Marrink, S J; Grunewald, F;  2025; https://zenodo.org/badge/latestdoi/327071500
; Kroon, P C; Grunewald, F; Barnoud, J; van Tilburg, M; Souza, P C; Wassenaar, T A; Marrink, S J;  elife 2024; 10.7554/elife.90627.2

[ moleculetype ]
CYST 1

[ atoms ]
1 SQ5n 1 CYST CAC1 1 -1.0 54.0
2 SQ4p 1 CYST AMC1 2  1.0 54.0
3 TC6  1 CYST SUL1 3  0.0 36.0
4 SQ4p 1 CYST AMC2 4  1.0 54.0
5 SQ5n 1 CYST CAC2 5 -1.0 54.0

[ bonds ]
2 3 1 0.356 5529.03 ; AMC1_SUL1
3 4 1 0.251 10000 ; SUL1_AMC2
1 2 1 0.268 10000 ; CAC1_AMC1
4 5 1 0.26 10000 ; AMC2_CAC2

[ angles ]
1 2 3 10 102.233 32.519 ; CAC1_AMC1_SUL1
2 3 4 10 121.643 30.524 ; AMC1_SUL1_AMC2
3 4 5 10 129.26 83.64 ; SUL1_AMC2_CAC2

[ dihedrals ]
1 2 3 4 2 -163.809 0.261 ; CAC1_AMC1_SUL1_AMC2

; AMC1_SUL1_AMC2_CAC2
2 3 4 5 9 80.698 -2.708 1 ; AMC1_SUL1_AMC2_CAC2
2 3 4 5 9 0.748 0.966 2 ; AMC1_SUL1_AMC2_CAC2
2 3 4 5 9 91.968 -0.393 3 ; AMC1_SUL1_AMC2_CAC2
2 3 4 5 9 139.298 -0.656 4 ; AMC1_SUL1_AMC2_CAC2
2 3 4 5 9 23.134 0.132 5 ; AMC1_SUL1_AMC2_CAC2
2 3 4 5 9 7.018 -0.156 6 ; AMC1_SUL1_AMC2_CAC2


; This file was generated using the following command:
; /coarse/chris/python_packages/fast_forward/.venv/bin/ff_inter -f mapped.xtc -s mapped.tpr -i ATP.itp -max-dihedral 5 -plots -itp-only
; 

; Please cite the following papers:
; Brasnett, C; Grunewald, L; Wassenaar, T A; Marrink, S J; Grunewald, F;  2025; https://zenodo.org/badge/latestdoi/327071500
; Kroon, P C; Grunewald, F; Barnoud, J; van Tilburg, M; Souza, P C; Wassenaar, T A; Marrink, S J;  elife 2024; 10.7554/elife.90627.2

[ moleculetype ]
DADO 1

[ atoms ]
 1 SN1   1 DADO ADE1  1  0.0 45.0
 2 TN3a  1 DADO ADE2  2  0.0 45.0
 3 TN5a  1 DADO ADE3  3  0.0  0.0
 4 TP1d  1 DADO ADE4  4  0.0 45.0
 5 TN3a  1 DADO ADE5  5  0.0 45.0
 6 TC6   1 DADO ADE6  6  0.0  0.0
 7 TC3   1 DADO RIB1  7  0.0 54.0
 8 TP1   1 DADO RIB2  8  0.0 54.0
 9 SN4ar 1 DADO RIB3  9  0.0 54.0
10 TC4   1 DADO RIB4 10  0.0  0.0

[ bonds ]
#ifdef FLEXIBLE 
 1  7 b_D_ADE1_RIB1
 7  8 b_D_RIB1_RIB2
 7  9 b_D_RIB1_RIB3
 8  9 b_D_RIB2_RIB3
#endif

[ constraints ]
 1  2 1 0.268
 1  5 1 0.287
 4  5 1 0.316
 2  5 1 0.353
 2  4 1 0.417

#ifndef FLEXIBLE
 1  7 c_D_ADE1_RIB1
 7  8 c_D_RIB1_RIB2
 7  9 c_D_RIB1_RIB3
 8  9 c_D_RIB2_RIB3
#endif

[ angles ]
 2  1  7 a_ADE2_ADE1_RIB1
 1  7  8 a_D_ADE1_RIB1_RIB2
 1  7  9 a_D_ADE1_RIB1_RIB3

[ dihedrals ]
 1 7 8 9 d_ADE1_RIB1_RIB2_RIB3
 1  2  5  4 d_ADE1_ADE2_ADE5_ADE4
 2  1  7  9 d_ADE2_ADE1_RIB1_RIB3_1
 2  1  7  9 d_ADE2_ADE1_RIB1_RIB3_2
 2  1  7  9 d_ADE2_ADE1_RIB1_RIB3_3
 2  1  7  9 d_ADE2_ADE1_RIB1_RIB3_4
 2  1  7  9 d_ADE2_ADE1_RIB1_RIB3_5

[ virtual_sitesn ]
 6 2  2  5
10 1  7  8  9

[ virtual_sites3 ]
 3  5  2  4 2 0.52 0.373

[ exclusions ]
 1 2 3 4 5 6 
 2 3 4 5 6
 3 4 5 6
 4 5 6
 5 6
10 7 8 9
 2 1 7 8 9
 1 7 8 9

; This file was generated using the following command:
; /coarse/chris/python_packages/fast_forward/.venv/bin/ff_inter -f mapped.xtc -s mapped.tpr -i ATP.itp -max-dihedral 5 -plots -itp-only
; 

; Please cite the following papers:
; Brasnett, C; Grunewald, L; Wassenaar, T A; Marrink, S J; Grunewald, F;  2025; https://zenodo.org/badge/latestdoi/327071500
; Kroon, P C; Grunewald, F; Barnoud, J; van Tilburg, M; Souza, P C; Wassenaar, T A; Marrink, S J;  elife 2024; 10.7554/elife.90627.2

[ moleculetype ]
DADPH 1

[ atoms ]
 1 SN1   1 DADPH ADE1  1  0.0 45.0
 2 TN3a  1 DADPH ADE2  2  0.0 45.0
 3 TN5a  1 DADPH ADE3  3  0.0  0.0
 4 TP1d  1 DADPH ADE4  4  0.0 45.0
 5 TN3a  1 DADPH ADE5  5  0.0 45.0
 6 TC6   1 DADPH ADE6  6  0.0  0.0
 7 TC3   1 DADPH RIB1  7  0.0 54.0
 8 TP1   1 DADPH RIB2  8  0.0 54.0
 9 SN4ar 1 DADPH RIB3  9  0.0 54.0
10 TC4   1 DADPH RIB4 10  0.0  0.0
11 Q5n   1 DADPH P1   11 -1.0 72.0
12 Q5n   1 DADPH P2   12 -1.0 72.0

[ bonds ]

#ifdef FLEXIBLE 
 1  7 b_D_ADE1_RIB1
 7  8 b_D_RIB1_RIB2
 7  9 b_D_RIB1_RIB3
 8  9 b_D_RIB2_RIB3
 9 11 b_RIB3_P1
11 12 b_H_P1_P2
#endif

[ constraints ]
 1  2 1 0.268
 1  5 1 0.287
 4  5 1 0.316
 2  5 1 0.353
 2  4 1 0.417

#ifndef FLEXIBLE
 1  7 c_D_ADE1_RIB1
 7  8 c_D_RIB1_RIB2
 7  9 c_D_RIB1_RIB3
 8  9 c_D_RIB2_RIB3
 9 11 c_RIB3_P1
11 12 c_H_P1_P2
#endif

[ angles ]
 2  1  7 a_ADE2_ADE1_RIB1
 1  7  8 a_D_ADE1_RIB1_RIB2
 1  7  9 a_D_ADE1_RIB1_RIB3
 7  9 11 a_RIB1_RIB3_P1
 9 11 12 a_RIB3_P1_P2

[ dihedrals ]
 1 7 8 9 d_ADE1_RIB1_RIB2_RIB3
 1  2  5  4 d_ADE1_ADE2_ADE5_ADE4
 2  1  7  9 d_ADE2_ADE1_RIB1_RIB3_1
 2  1  7  9 d_ADE2_ADE1_RIB1_RIB3_2
 2  1  7  9 d_ADE2_ADE1_RIB1_RIB3_3
 2  1  7  9 d_ADE2_ADE1_RIB1_RIB3_4
 2  1  7  9 d_ADE2_ADE1_RIB1_RIB3_5
 1  7  9 11 d_ADE1_RIB1_RIB3_P1
 7  9 11 12 d_RIB1_RIB3_P1_P2

[ virtual_sitesn ]
 6 2  2  5
10 1  7  8  9

[ virtual_sites3 ]
 3  5  2  4 2 0.52 0.373

[ exclusions ]
 1 2 3 4 5 6 
 2 3 4 5 6
 3 4 5 6
 4 5 6
 5 6
10 7 8 9
 2 1 7 8 9
 1 7 8 9

; This file was generated using the following command:
; /coarse/chris/python_packages/fast_forward/.venv/bin/ff_inter -f mapped.xtc -s mapped.tpr -i ATP.itp -max-dihedral 5 -plots -itp-only
; 

; Please cite the following papers:
; Brasnett, C; Grunewald, L; Wassenaar, T A; Marrink, S J; Grunewald, F;  2025; https://zenodo.org/badge/latestdoi/327071500
; Kroon, P C; Grunewald, F; Barnoud, J; van Tilburg, M; Souza, P C; Wassenaar, T A; Marrink, S J;  elife 2024; 10.7554/elife.90627.2

[ moleculetype ]
DADP 1

[ atoms ]
 1 SN1   1 DADP ADE1  1  0.0 45.0
 2 TN3a  1 DADP ADE2  2  0.0 45.0
 3 TN5a  1 DADP ADE3  3  0.0  0.0
 4 TP1d  1 DADP ADE4  4  0.0 45.0
 5 TN3a  1 DADP ADE5  5  0.0 45.0
 6 TC6   1 DADP ADE6  6  0.0  0.0
 7 TC3   1 DADP RIB1  7  0.0 54.0
 8 TP1   1 DADP RIB2  8  0.0 54.0
 9 SN4ar 1 DADP RIB3  9  0.0 54.0
10 TC4   1 DADP RIB4 10  0.0  0.0
11 Q5n   1 DADP P1   11 -1.0 72.0
12 Q5n   1 DADP P2   12 -1.0 72.0

[ bonds ]

#ifdef FLEXIBLE 
 1  7 b_D_ADE1_RIB1
 7  8 b_D_RIB1_RIB2
 7  9 b_D_RIB1_RIB3
 8  9 b_D_RIB2_RIB3
 9 11 b_RIB3_P1
11 12 b_P1_P2
#endif

[ constraints ]
 1  2 1 0.268
 1  5 1 0.287
 4  5 1 0.316
 2  5 1 0.353
 2  4 1 0.417

#ifndef FLEXIBLE
 1  7 c_D_ADE1_RIB1
 7  8 c_D_RIB1_RIB2
 7  9 c_D_RIB1_RIB3
 8  9 c_D_RIB2_RIB3
 9 11 c_RIB3_P1
11 12 c_P1_P2
#endif

[ angles ]
 2  1  7 a_ADE2_ADE1_RIB1
 1  7  8 a_D_ADE1_RIB1_RIB2
 1  7  9 a_D_ADE1_RIB1_RIB3
 7  9 11 a_RIB1_RIB3_P1
 9 11 12 a_RIB3_P1_P2

[ dihedrals ]
 1 7 8 9 d_ADE1_RIB1_RIB2_RIB3
 1  2  5  4 d_ADE1_ADE2_ADE5_ADE4
 2  1  7  9 d_ADE2_ADE1_RIB1_RIB3_1
 2  1  7  9 d_ADE2_ADE1_RIB1_RIB3_2
 2  1  7  9 d_ADE2_ADE1_RIB1_RIB3_3
 2  1  7  9 d_ADE2_ADE1_RIB1_RIB3_4
 2  1  7  9 d_ADE2_ADE1_RIB1_RIB3_5
 1  7  9 11 d_ADE1_RIB1_RIB3_P1
 7  9 11 12 d_RIB1_RIB3_P1_P2

[ virtual_sitesn ]
 6 2  2  5
10 1  7  8  9

[ virtual_sites3 ]
 3  5  2  4 2 0.52 0.373

[ exclusions ]
 1 2 3 4 5 6 
 2 3 4 5 6
 3 4 5 6
 4 5 6
 5 6
10 7 8 9
 2 1 7 8 9
 1 7 8 9

; This file was generated using the following command:
; /coarse/chris/python_packages/fast_forward/.venv/bin/ff_inter -f mapped.xtc -s mapped.tpr -i ATP.itp -max-dihedral 5 -plots -itp-only
; 

; Please cite the following papers:
; Brasnett, C; Grunewald, L; Wassenaar, T A; Marrink, S J; Grunewald, F;  2025; https://zenodo.org/badge/latestdoi/327071500
; Kroon, P C; Grunewald, F; Barnoud, J; van Tilburg, M; Souza, P C; Wassenaar, T A; Marrink, S J;  elife 2024; 10.7554/elife.90627.2

[ moleculetype ]
DAMP 1

[ atoms ]
 1 SN1   1 DAMP ADE1  1  0.0 45.0
 2 TN3a  1 DAMP ADE2  2  0.0 45.0
 3 TN5a  1 DAMP ADE3  3  0.0  0.0
 4 TP1d  1 DAMP ADE4  4  0.0 45.0
 5 TN3a  1 DAMP ADE5  5  0.0 45.0
 6 TC6   1 DAMP ADE6  6  0.0  0.0
 7 TC3   1 DAMP RIB1  7  0.0 54.0
 8 TP1   1 DAMP RIB2  8  0.0 54.0
 9 SN4ar 1 DAMP RIB3  9  0.0 54.0
10 TC4   1 DAMP RIB4 10  0.0  0.0
11 D     1 DAMP P1   11 -2.0 72.0

[ bonds ]

#ifdef FLEXIBLE 
 1  7 b_D_ADE1_RIB1
 7  8 b_D_RIB1_RIB2
 7  9 b_D_RIB1_RIB3
 8  9 b_D_RIB2_RIB3
 9 11 b_RIB3_P1
#endif

[ constraints ]
 1  2 1 0.268
 1  5 1 0.287
 4  5 1 0.316
 2  5 1 0.353
 2  4 1 0.417

#ifndef FLEXIBLE
 1  7 c_D_ADE1_RIB1
 7  8 c_D_RIB1_RIB2
 7  9 c_D_RIB1_RIB3
 8  9 c_D_RIB2_RIB3
 9 11 c_RIB3_P1
#endif

[ angles ]
 2  1  7 a_ADE2_ADE1_RIB1
 1  7  8 a_D_ADE1_RIB1_RIB2
 1  7  9 a_D_ADE1_RIB1_RIB3
 7  9 11 a_RIB1_RIB3_P1

[ dihedrals ]
 1 7 8 9 d_ADE1_RIB1_RIB2_RIB3
 1  2  5  4 d_ADE1_ADE2_ADE5_ADE4
 2  1  7  9 d_ADE2_ADE1_RIB1_RIB3_1
 2  1  7  9 d_ADE2_ADE1_RIB1_RIB3_2
 2  1  7  9 d_ADE2_ADE1_RIB1_RIB3_3
 2  1  7  9 d_ADE2_ADE1_RIB1_RIB3_4
 2  1  7  9 d_ADE2_ADE1_RIB1_RIB3_5
 1  7  9 11 d_ADE1_RIB1_RIB3_P1

[ virtual_sitesn ]
 6 2  2  5
10 1  7  8  9

[ virtual_sites3 ]
 3  5  2  4 2 0.52 0.373

[ exclusions ]
 1 2 3 4 5 6 
 2 3 4 5 6
 3 4 5 6
 4 5 6
 5 6
10 7 8 9
 2 1 7 8 9
 1 7 8 9

; This file was generated using the following command:
; /coarse/chris/python_packages/fast_forward/.venv/bin/ff_inter -f mapped.xtc -s mapped.tpr -i ATP.itp -max-dihedral 5 -plots -itp-only
; 

; Please cite the following papers:
; Brasnett, C; Grunewald, L; Wassenaar, T A; Marrink, S J; Grunewald, F;  2025; https://zenodo.org/badge/latestdoi/327071500
; Kroon, P C; Grunewald, F; Barnoud, J; van Tilburg, M; Souza, P C; Wassenaar, T A; Marrink, S J;  elife 2024; 10.7554/elife.90627.2

[ moleculetype ]
DATPH 1

[ atoms ]
 1 SN1   1 DATPH ADE1  1  0.0 45.0
 2 TN3a  1 DATPH ADE2  2  0.0 45.0
 3 TN5a  1 DATPH ADE3  3  0.0  0.0
 4 TP1d  1 DATPH ADE4  4  0.0 45.0
 5 TN3a  1 DATPH ADE5  5  0.0 45.0
 6 TC6   1 DATPH ADE6  6  0.0  0.0
 7 TC3   1 DATPH RIB1  7  0.0 54.0
 8 TP1   1 DATPH RIB2  8  0.0 54.0
 9 SN4ar 1 DATPH RIB3  9  0.0 54.0
10 TC4   1 DATPH RIB4 10  0.0  0.0
11 Q5n   1 DATPH P1   11 -1.0 72.0
12 Q5n   1 DATPH P2   12 -1.0 72.0
13 Q5n   1 DATPH P3   13 -1.0 72.0

[ bonds ]

#ifdef FLEXIBLE 
 1  7 b_D_ADE1_RIB1
 7  8 b_D_RIB1_RIB2
 7  9 b_D_RIB1_RIB3
 8  9 b_D_RIB2_RIB3
 9 11 b_RIB3_P1
11 12 b_H_P1_P2
12 13 b_H_P2_P3
#endif

[ constraints ]
 1  2 1 0.268
 1  5 1 0.287
 4  5 1 0.316
 2  5 1 0.353
 2  4 1 0.417

#ifndef FLEXIBLE
 1  7 c_D_ADE1_RIB1
 7  8 c_D_RIB1_RIB2
 7  9 c_D_RIB1_RIB3
 8  9 c_D_RIB2_RIB3
 9 11 c_RIB3_P1
11 12 c_H_P1_P2
12 13 c_H_P2_P3
#endif

[ angles ]
 2  1  7 a_ADE2_ADE1_RIB1
 1  7  8 a_D_ADE1_RIB1_RIB2
 1  7  9 a_D_ADE1_RIB1_RIB3
 7  9 11 a_RIB1_RIB3_P1
 9 11 12 a_RIB3_P1_P2
11 12 13 a_P1_P2_P3

[ dihedrals ]
 1 7 8 9 d_ADE1_RIB1_RIB2_RIB3
 1  2  5  4 d_ADE1_ADE2_ADE5_ADE4
 2  1  7  9 d_ADE2_ADE1_RIB1_RIB3_1
 2  1  7  9 d_ADE2_ADE1_RIB1_RIB3_2
 2  1  7  9 d_ADE2_ADE1_RIB1_RIB3_3
 2  1  7  9 d_ADE2_ADE1_RIB1_RIB3_4
 2  1  7  9 d_ADE2_ADE1_RIB1_RIB3_5
 1  7  9 11 d_ADE1_RIB1_RIB3_P1
 7  9 11 12 d_RIB1_RIB3_P1_P2
 9 11 12 13 d_RIB3_P1_P2_P3

[ virtual_sitesn ]
 6 2  2  5
10 1  7  8  9

[ virtual_sites3 ]
 3  5  2  4 2 0.52 0.373

[ exclusions ]
 1 2 3 4 5 6 
 2 3 4 5 6
 3 4 5 6
 4 5 6
 5 6
10 7 8 9
 2 1 7 8 9
 1 7 8 9

; This file was generated using the following command:
; /coarse/chris/python_packages/fast_forward/.venv/bin/ff_inter -f mapped.xtc -s mapped.tpr -i ATP.itp -max-dihedral 5 -plots -itp-only
; 

; Please cite the following papers:
; Brasnett, C; Grunewald, L; Wassenaar, T A; Marrink, S J; Grunewald, F;  2025; https://zenodo.org/badge/latestdoi/327071500
; Kroon, P C; Grunewald, F; Barnoud, J; van Tilburg, M; Souza, P C; Wassenaar, T A; Marrink, S J;  elife 2024; 10.7554/elife.90627.2

[ moleculetype ]
DATP 1

[ atoms ]
 1 SN1   1 DATP ADE1  1  0.0 45.0
 2 TN3a  1 DATP ADE2  2  0.0 45.0
 3 TN5a  1 DATP ADE3  3  0.0  0.0
 4 TP1d  1 DATP ADE4  4  0.0 45.0
 5 TN3a  1 DATP ADE5  5  0.0 45.0
 6 TC6   1 DATP ADE6  6  0.0  0.0
 7 TC3   1 DATP RIB1  7  0.0 54.0
 8 TP1   1 DATP RIB2  8  0.0 54.0
 9 SN4ar 1 DATP RIB3  9  0.0 54.0
10 TC4   1 DATP RIB4 10  0.0  0.0
11 Q5n   1 DATP P1   11 -1.0 72.0
12 Q5n   1 DATP P2   12 -1.0 72.0
13 D     1 DATP P3   13 -2.0 72.0

[ bonds ]
#ifdef FLEXIBLE 
 1  7 b_D_ADE1_RIB1
 7  8 b_D_RIB1_RIB2
 7  9 b_D_RIB1_RIB3
 8  9 b_D_RIB2_RIB3
 9 11 b_RIB3_P1
11 12 b_P1_P2
12 13 b_P2_P3
#endif

[ constraints ]
 1  2 1 0.268
 1  5 1 0.287
 4  5 1 0.316
 2  5 1 0.353
 2  4 1 0.417

#ifndef FLEXIBLE
 1  7 c_D_ADE1_RIB1
 7  8 c_D_RIB1_RIB2
 7  9 c_D_RIB1_RIB3
 8  9 c_D_RIB2_RIB3
 9 11 c_RIB3_P1
11 12 c_P1_P2
12 13 c_P2_P3
#endif

[ angles ]
 2  1  7 a_ADE2_ADE1_RIB1
 1  7  8 a_D_ADE1_RIB1_RIB2
 1  7  9 a_D_ADE1_RIB1_RIB3
 7  9 11 a_RIB1_RIB3_P1
 9 11 12 a_RIB3_P1_P2
11 12 13 a_P1_P2_P3

[ dihedrals ]
 1 7 8 9 d_ADE1_RIB1_RIB2_RIB3
 1  2  5  4 d_ADE1_ADE2_ADE5_ADE4
 2  1  7  9 d_ADE2_ADE1_RIB1_RIB3_1
 2  1  7  9 d_ADE2_ADE1_RIB1_RIB3_2
 2  1  7  9 d_ADE2_ADE1_RIB1_RIB3_3
 2  1  7  9 d_ADE2_ADE1_RIB1_RIB3_4
 2  1  7  9 d_ADE2_ADE1_RIB1_RIB3_5
 1  7  9 11 d_ADE1_RIB1_RIB3_P1
 7  9 11 12 d_RIB1_RIB3_P1_P2
 9 11 12 13 d_RIB3_P1_P2_P3

[ virtual_sitesn ]
 6 2  2  5
10 1  7  8  9

[ virtual_sites3 ]
 3  5  2  4 2 0.52 0.373

[ exclusions ]
 1 2 3 4 5 6 
 2 3 4 5 6
 3 4 5 6
 4 5 6
 5 6
10 7 8 9
 2 1 7 8 9
 1 7 8 9

; This file was generated using the following command:
; /coarse/chris/python_packages/fast_forward/.venv/bin/ff_inter -f mapped.xtc -s mapped.tpr -i CMP.itp -max-dihedral 5 -plots -itp-only -dists
; 

; Please cite the following papers:
; Brasnett, C; Grunewald, L; Wassenaar, T A; Marrink, S J; Grunewald, F;  2025; https://zenodo.org/badge/latestdoi/327071500
; Kroon, P C; Grunewald, F; Barnoud, J; van Tilburg, M; Souza, P C; Wassenaar, T A; Marrink, S J;  elife 2024; 10.7554/elife.90627.2

[ moleculetype ]
DCDPH 1

[ atoms ]
1 SN1   1 DCDPH CYO1 1  0.0 45.0
2 TP1a  1 DCDPH CYO2 2  0.0 45.0
3 TN5a  1 DCDPH CYO3 3  0.0  0.0
4 TP1d  1 DCDPH CYO4 4  0.0 45.0
5 TC3   1 DCDPH RIB1 5  0.0 54.0
6 TP1   1 DCDPH RIB2 6  0.0 54.0
7 SN4ar 1 DCDPH RIB3 7  0.0 54.0
8 TC4   1 DCDPH RIB4 8  0.0  0.0
9 Q5n   1 DCDPH P1   9 -1.0 72.0
10 Q5n  1 DCDPH P2  10 -1.0 72.0

[ bonds ]

#ifdef FLEXIBLE
 1  5 b_D_CYO1_RIB1
 5  6 b_D_RIB1_RIB2
 5  7 b_D_RIB1_RIB3
 6  7 b_D_RIB2_RIB3
 7  9 b_RIB3_P1
 9 10 b_H_P1_P2
#endif

[ constraints ]
1 2 1 0.255
1 4 1 0.340
2 4 1 0.412

#ifndef FLEXIBLE
 1  5 c_D_CYO1_RIB1
 5  6 c_D_RIB1_RIB2
 5  7 c_D_RIB1_RIB3
 6  7 c_D_RIB2_RIB3
 7  9 c_RIB3_P1
 9 10 c_H_P1_P2
#endif

[ angles ]
 2  1  5 a_CYO2_CYO1_RIB1
 4  1  5 a_CYO4_CYO1_RIB1
 1  5  6 a_D_CYO1_RIB1_RIB2
 1  5  7 a_D_CYO1_RIB1_RIB3
 5  7  9 a_RIB1_RIB3_P1
 7  9 10 a_RIB3_P1_P2

[ virtual_sitesn ]
3 2 2 4
8 1 5 6 7

[ dihedrals ]
 1 5 6 7 d_CYO1_RIB1_RIB2_RIB3
 1  5  7  9 d_CYO1_RIB1_RIB3_P1
 2  1  5  7 d_CYO2_CYO1_RIB1_RIB3_1
 2  1  5  7 d_CYO2_CYO1_RIB1_RIB3_2
 2  1  5  7 d_CYO2_CYO1_RIB1_RIB3_3
 2  1  5  7 d_CYO2_CYO1_RIB1_RIB3_4
 2  1  5  7 d_CYO2_CYO1_RIB1_RIB3_5
 5  7  9 10 d_RIB1_RIB3_P1_P2

[ exclusions ]
1 2 3 4 
2 3 4 
3 4 
8 5 6 7 
2 1 5 6 7
1 5 6 7 

; This file was generated using the following command:
; /coarse/chris/python_packages/fast_forward/.venv/bin/ff_inter -f mapped.xtc -s mapped.tpr -i CMP.itp -max-dihedral 5 -plots -itp-only -dists
; 

; Please cite the following papers:
; Brasnett, C; Grunewald, L; Wassenaar, T A; Marrink, S J; Grunewald, F;  2025; https://zenodo.org/badge/latestdoi/327071500
; Kroon, P C; Grunewald, F; Barnoud, J; van Tilburg, M; Souza, P C; Wassenaar, T A; Marrink, S J;  elife 2024; 10.7554/elife.90627.2

[ moleculetype ]
DCDP 1

[ atoms ]
1 SN1   1 DCDP CYO1 1  0.0 45.0
2 TP1a  1 DCDP CYO2 2  0.0 45.0
3 TN5a  1 DCDP CYO3 3  0.0  0.0
4 TP1d  1 DCDP CYO4 4  0.0 45.0
5 TC3   1 DCDP RIB1 5  0.0 54.0
6 TP1   1 DCDP RIB2 6  0.0 54.0
7 SN4ar 1 DCDP RIB3 7  0.0 54.0
8 TC4   1 DCDP RIB4 8  0.0  0.0
9 Q5n   1 DCDP P1   9 -1.0 72.0
10 D    1 DCDP P2  10 -2.0 72.0

[ bonds ]
#ifdef FLEXIBLE
 1  5 b_D_CYO1_RIB1
 5  6 b_D_RIB1_RIB2
 5  7 b_D_RIB1_RIB3
 6  7 b_D_RIB2_RIB3
 7  9 b_RIB3_P1
 9 10 b_P1_P2
#endif

[ constraints ]
1 2 1 0.255
1 4 1 0.340
2 4 1 0.412

#ifndef FLEXIBLE
 1  5 c_D_CYO1_RIB1
 5  6 c_D_RIB1_RIB2
 5  7 c_D_RIB1_RIB3
 6  7 c_D_RIB2_RIB3
 7  9 c_RIB3_P1
 9 10 c_P1_P2
#endif

[ angles ]
 2  1  5 a_CYO2_CYO1_RIB1
 4  1  5 a_CYO4_CYO1_RIB1
 1  5  6 a_D_CYO1_RIB1_RIB2
 1  5  7 a_D_CYO1_RIB1_RIB3
 5  7  9 a_RIB1_RIB3_P1
 7  9 10 a_RIB3_P1_P2

[ virtual_sitesn ]
3 2 2 4
8 1 5 6 7

[ dihedrals ]
 1 5 6 7 d_CYO1_RIB1_RIB2_RIB3
 1  5  7  9 d_CYO1_RIB1_RIB3_P1
 2  1  5  7 d_CYO2_CYO1_RIB1_RIB3_1
 2  1  5  7 d_CYO2_CYO1_RIB1_RIB3_2
 2  1  5  7 d_CYO2_CYO1_RIB1_RIB3_3
 2  1  5  7 d_CYO2_CYO1_RIB1_RIB3_4
 2  1  5  7 d_CYO2_CYO1_RIB1_RIB3_5
 5  7  9 10 d_RIB1_RIB3_P1_P2

[ exclusions ]
1 2 3 4 
2 3 4 
3 4 
8 5 6 7 
2 1 5 6 7
1 5 6 7 

; This file was generated using the following command:
; /coarse/chris/python_packages/fast_forward/.venv/bin/ff_inter -f mapped.xtc -s mapped.tpr -i CMP.itp -max-dihedral 5 -plots -itp-only -dists
; 

; Please cite the following papers:
; Brasnett, C; Grunewald, L; Wassenaar, T A; Marrink, S J; Grunewald, F;  2025; https://zenodo.org/badge/latestdoi/327071500
; Kroon, P C; Grunewald, F; Barnoud, J; van Tilburg, M; Souza, P C; Wassenaar, T A; Marrink, S J;  elife 2024; 10.7554/elife.90627.2

[ moleculetype ]
DCMP 1

[ atoms ]
1 SN1   1 DCMP CYO1 1  0.0 45.0
2 TP1a  1 DCMP CYO2 2  0.0 45.0
3 TN5a  1 DCMP CYO3 3  0.0  0.0
4 TP1d  1 DCMP CYO4 4  0.0 45.0
5 TC3   1 DCMP RIB1 5  0.0 54.0
6 TP1   1 DCMP RIB2 6  0.0 54.0
7 SN4ar 1 DCMP RIB3 7  0.0 54.0
8 TC4   1 DCMP RIB4 8  0.0  0.0
9 D     1 DCMP P1   9 -2.0 72.0

[ bonds ]
#ifdef FLEXIBLE
 1  5 b_D_CYO1_RIB1
 5  6 b_D_RIB1_RIB2
 5  7 b_D_RIB1_RIB3
 6  7 b_D_RIB2_RIB3
 7  9 b_RIB3_P1
#endif

[ constraints ]
1 2 1 0.255
1 4 1 0.340
2 4 1 0.412

#ifndef FLEXIBLE
 1  5 c_D_CYO1_RIB1
 5  6 c_D_RIB1_RIB2
 5  7 c_D_RIB1_RIB3
 6  7 c_D_RIB2_RIB3
 7  9 c_RIB3_P1
#endif

[ angles ]
 2  1  5 a_CYO2_CYO1_RIB1
 4  1  5 a_CYO4_CYO1_RIB1
 1  5  6 a_D_CYO1_RIB1_RIB2
 1  5  7 a_D_CYO1_RIB1_RIB3
 5  7  9 a_RIB1_RIB3_P1

[ virtual_sitesn ]
3 2 2 4
8 1 5 6 7

[ dihedrals ]
 1 5 6 7 d_CYO1_RIB1_RIB2_RIB3
 1  5  7  9 d_CYO1_RIB1_RIB3_P1
 2  1  5  7 d_CYO2_CYO1_RIB1_RIB3_1
 2  1  5  7 d_CYO2_CYO1_RIB1_RIB3_2
 2  1  5  7 d_CYO2_CYO1_RIB1_RIB3_3
 2  1  5  7 d_CYO2_CYO1_RIB1_RIB3_4
 2  1  5  7 d_CYO2_CYO1_RIB1_RIB3_5

[ exclusions ]
1 2 3 4 
2 3 4 
3 4 
8 5 6 7 
2 1 5 6 7
1 5 6 7 

; This file was generated using the following command:
; /coarse/chris/python_packages/fast_forward/.venv/bin/ff_inter -f mapped.xtc -s mapped.tpr -i CMP.itp -max-dihedral 5 -plots -itp-only -dists
; 

; Please cite the following papers:
; Brasnett, C; Grunewald, L; Wassenaar, T A; Marrink, S J; Grunewald, F;  2025; https://zenodo.org/badge/latestdoi/327071500
; Kroon, P C; Grunewald, F; Barnoud, J; van Tilburg, M; Souza, P C; Wassenaar, T A; Marrink, S J;  elife 2024; 10.7554/elife.90627.2

[ moleculetype ]
DCTPH 1

[ atoms ]
1 SN1   1 DCTPH CYO1 1  0.0 45.0
2 TP1a  1 DCTPH CYO2 2  0.0 45.0
3 TN5a  1 DCTPH CYO3 3  0.0  0.0
4 TP1d  1 DCTPH CYO4 4  0.0 45.0
5 TC3   1 DCTPH RIB1 5  0.0 54.0
6 TP1   1 DCTPH RIB2 6  0.0 54.0
7 SN4ar 1 DCTPH RIB3 7  0.0 54.0
8 TC4   1 DCTPH RIB4 8  0.0  0.0
9 Q5n   1 DCTPH P1   9 -1.0 72.0
10 Q5n  1 DCTPH P2  10 -1.0 72.0
11 Q5n    1 DCTPH P3  11 -1.0 72.0

[ bonds ]
#ifdef FLEXIBLE
 1  5 b_D_CYO1_RIB1
 5  6 b_D_RIB1_RIB2
 5  7 b_D_RIB1_RIB3
 6  7 b_D_RIB2_RIB3
 7  9 b_RIB3_P1
 9 10 b_H_P1_P2
10 11 b_H_P2_P3
#endif

[ constraints ]
1 2 1 0.255
1 4 1 0.340
2 4 1 0.412

#ifndef FLEXIBLE
 1  5 c_D_CYO1_RIB1
 5  6 c_D_RIB1_RIB2
 5  7 c_D_RIB1_RIB3
 6  7 c_D_RIB2_RIB3
 7  9 c_RIB3_P1
 9 10 c_H_P1_P2
10 11 c_H_P2_P3
#endif

[ angles ]
 2  1  5 a_CYO2_CYO1_RIB1
 4  1  5 a_CYO4_CYO1_RIB1
 1  5  6 a_D_CYO1_RIB1_RIB2
 1  5  7 a_D_CYO1_RIB1_RIB3
 5  7  9 a_RIB1_RIB3_P1
 7  9 10 a_RIB3_P1_P2
 9 10 11 a_P1_P2_P3

[ virtual_sitesn ]
3 2 2 4
8 1 5 6 7

[ dihedrals ]
 1 5 6 7 d_CYO1_RIB1_RIB2_RIB3
 1  5  7  9 d_CYO1_RIB1_RIB3_P1
 2  1  5  7 d_CYO2_CYO1_RIB1_RIB3_1
 2  1  5  7 d_CYO2_CYO1_RIB1_RIB3_2
 2  1  5  7 d_CYO2_CYO1_RIB1_RIB3_3
 2  1  5  7 d_CYO2_CYO1_RIB1_RIB3_4
 2  1  5  7 d_CYO2_CYO1_RIB1_RIB3_5
 5  7  9 10 d_RIB1_RIB3_P1_P2
 7  9 10 11 d_RIB3_P1_P2_P3

[ exclusions ]
1 2 3 4 
2 3 4 
3 4 
8 5 6 7 
2 1 5 6 7
1 5 6 7 

; This file was generated using the following command:
; /coarse/chris/python_packages/fast_forward/.venv/bin/ff_inter -f mapped.xtc -s mapped.tpr -i CMP.itp -max-dihedral 5 -plots -itp-only -dists
; 

; Please cite the following papers:
; Brasnett, C; Grunewald, L; Wassenaar, T A; Marrink, S J; Grunewald, F;  2025; https://zenodo.org/badge/latestdoi/327071500
; Kroon, P C; Grunewald, F; Barnoud, J; van Tilburg, M; Souza, P C; Wassenaar, T A; Marrink, S J;  elife 2024; 10.7554/elife.90627.2

[ moleculetype ]
DCTP 1

[ atoms ]
1 SN1   1 DCTP CYO1 1  0.0 45.0
2 TP1a  1 DCTP CYO2 2  0.0 45.0
3 TN5a  1 DCTP CYO3 3  0.0  0.0
4 TP1d  1 DCTP CYO4 4  0.0 45.0
5 TC3   1 DCTP RIB1 5  0.0 54.0
6 TP1   1 DCTP RIB2 6  0.0 54.0
7 SN4ar 1 DCTP RIB3 7  0.0 54.0
8 TC4   1 DCTP RIB4 8  0.0  0.0
9 Q5n   1 DCTP P1   9 -1.0 72.0
10 Q5n  1 DCTP P2  10 -1.0 72.0
11 D    1 DCTP P3  11 -2.0 72.0

[ bonds ]
#ifdef FLEXIBLE
 1  5 b_D_CYO1_RIB1
 5  6 b_D_RIB1_RIB2
 5  7 b_D_RIB1_RIB3
 6  7 b_D_RIB2_RIB3
 7  9 b_RIB3_P1
 9 10 b_P1_P2
10 11 b_P2_P3
#endif

[ constraints ]
1 2 1 0.255
1 4 1 0.340
2 4 1 0.412

#ifndef FLEXIBLE
 1  5 c_D_CYO1_RIB1
 5  6 c_D_RIB1_RIB2
 5  7 c_D_RIB1_RIB3
 6  7 c_D_RIB2_RIB3
 7  9 c_RIB3_P1
 9 10 c_P1_P2
10 11 c_P2_P3
#endif

[ angles ]
 2  1  5 a_CYO2_CYO1_RIB1
 4  1  5 a_CYO4_CYO1_RIB1
 1  5  6 a_D_CYO1_RIB1_RIB2
 1  5  7 a_D_CYO1_RIB1_RIB3
 5  7  9 a_RIB1_RIB3_P1
 7  9 10 a_RIB3_P1_P2
 9 10 11 a_P1_P2_P3

[ virtual_sitesn ]
3 2 2 4
8 1 5 6 7

[ dihedrals ]
 1 5 6 7 d_CYO1_RIB1_RIB2_RIB3
 1  5  7  9 d_CYO1_RIB1_RIB3_P1
 2  1  5  7 d_CYO2_CYO1_RIB1_RIB3_1
 2  1  5  7 d_CYO2_CYO1_RIB1_RIB3_2
 2  1  5  7 d_CYO2_CYO1_RIB1_RIB3_3
 2  1  5  7 d_CYO2_CYO1_RIB1_RIB3_4
 2  1  5  7 d_CYO2_CYO1_RIB1_RIB3_5
 5  7  9 10 d_RIB1_RIB3_P1_P2
 7  9 10 11 d_RIB3_P1_P2_P3

[ exclusions ]
1 2 3 4 
2 3 4 
3 4 
8 5 6 7 
2 1 5 6 7
1 5 6 7 

; This file was generated using the following command:
; /coarse/chris/python_packages/fast_forward/.venv/bin/ff_inter -f mapped.xtc -s mapped.tpr -i CMP.itp -max-dihedral 5 -plots -itp-only -dists
; 

; Please cite the following papers:
; Brasnett, C; Grunewald, L; Wassenaar, T A; Marrink, S J; Grunewald, F;  2025; https://zenodo.org/badge/latestdoi/327071500
; Kroon, P C; Grunewald, F; Barnoud, J; van Tilburg, M; Souza, P C; Wassenaar, T A; Marrink, S J;  elife 2024; 10.7554/elife.90627.2

[ moleculetype ]
DCYD 1

[ atoms ]
1 SN1   1 DCYD CYO1 1  0.0 45.0
2 TP1a  1 DCYD CYO2 2  0.0 45.0
3 TN5a  1 DCYD CYO3 3  0.0  0.0
4 TP1d  1 DCYD CYO4 4  0.0 45.0
5 TC3   1 DCYD RIB1 5  0.0 54.0
6 TP1   1 DCYD RIB2 6  0.0 54.0
7 SN4ar 1 DCYD RIB3 7  0.0 54.0
8 TC4   1 DCYD RIB4 8  0.0  0.0

[ bonds ]
#ifdef FLEXIBLE
 1  5 b_D_CYO1_RIB1
 5  6 b_D_RIB1_RIB2
 5  7 b_D_RIB1_RIB3
 6  7 b_D_RIB2_RIB3
#endif

[ constraints ]
1 2 1 0.255
1 4 1 0.340
2 4 1 0.412

#ifndef FLEXIBLE
 1  5 c_D_CYO1_RIB1
 5  6 c_D_RIB1_RIB2
 5  7 c_D_RIB1_RIB3
 6  7 c_D_RIB2_RIB3
#endif

[ angles ]
 2  1  5 a_CYO2_CYO1_RIB1
 4  1  5 a_CYO4_CYO1_RIB1
 1  5  6 a_D_CYO1_RIB1_RIB2
 1  5  7 a_D_CYO1_RIB1_RIB3

[ virtual_sitesn ]
3 2 2 4
8 1 5 6 7

[ dihedrals ]
 1 5 6 7 d_CYO1_RIB1_RIB2_RIB3
 2  1  5  7 d_CYO2_CYO1_RIB1_RIB3_1
 2  1  5  7 d_CYO2_CYO1_RIB1_RIB3_2
 2  1  5  7 d_CYO2_CYO1_RIB1_RIB3_3
 2  1  5  7 d_CYO2_CYO1_RIB1_RIB3_4
 2  1  5  7 d_CYO2_CYO1_RIB1_RIB3_5

[ exclusions ]
1 2 3 4 
2 3 4 
3 4 
8 5 6 7 
2 1 5 6 7
1 5 6 7 

; This file was generated using the following command:
; /coarse/chris/python_packages/fast_forward/.venv/bin/ff_inter -f mapped.xtc -s mapped.tpr -i DGDPH.itp -max-dihedral 5 -plots -itp-only -dists
; 

; Please cite the following papers:
; Brasnett, C; Grunewald, L; Wassenaar, T A; Marrink, S J; Grunewald, F;  2025; https://zenodo.org/badge/latestdoi/327071500
; Kroon, P C; Grunewald, F; Barnoud, J; van Tilburg, M; Souza, P C; Wassenaar, T A; Marrink, S J;  elife 2024; 10.7554/elife.90627.2

[ moleculetype ]
DGDPH 1

[ atoms ]
 1 SN1   1 DGDPH GUA1  1 0.0 45.0
 2 TP1d  1 DGDPH GUA2  2 0.0 45.0
 3 TP1d  1 DGDPH GUA3  3 0.0  0.0
 4 TP1a  1 DGDPH GUA4  4 0.0 45.0
 5 TN5a  1 DGDPH GUA5  5 0.0  0.0
 6 TN3a  1 DGDPH GUA6  6 0.0  0.0
 7 TC3   1 DGDPH RIB1  7 0.0 54.0
 8 TP1   1 DGDPH RIB2  8 0.0 54.0
 9 SN4ar 1 DGDPH RIB3  9 0.0 54.0
10 TC4   1 DGDPH RIB4 10 0.0  0.0
11 Q5n   1 DGDPH P1   11 -1.0 72.0
12 Q5n   1 DGDPH P2   12 -1.0 72.0

[ bonds ]

#ifdef FLEXIBLE
 1  7 b_D_GUA1_RIB1
 7  8 b_D_RIB1_RIB2
 7  9 b_D_RIB1_RIB3
 8  9 b_D_RIB2_RIB3
 9 11 b_RIB3_P1
11 12 b_H_P1_P2
#endif

[ constraints ]
 1  2 1 0.566
 1  4 1 0.483
 2  4 1 0.504

#ifndef FLEXIBLE
 1  7 c_D_GUA1_RIB1
 7  8 c_D_RIB1_RIB2
 7  9 c_D_RIB1_RIB3
 8  9 c_D_RIB2_RIB3
 9 11 c_RIB3_P1
11 12 c_H_P1_P2
#endif

[ angles ]
 4  1  7 a_GUA4_GUA1_RIB1
 1  7  8 a_D_GUA1_RIB1_RIB2
 1  7  9 a_D_GUA1_RIB1_RIB3
 7  9 11 a_RIB1_RIB3_P1
 9 11 12 a_RIB3_P1_P2

[ virtual_sitesn ]
 3 2  2  4
 5 2  1  2
 6 2  1  1  2  4  4
10 1  7  8  9

[ dihedrals ]
 1  7  8  9 d_GUA1_RIB1_RIB2_RIB3
 4  1  7  9 d_GUA4_GUA1_RIB1_RIB3_1
 4  1  7  9 d_GUA4_GUA1_RIB1_RIB3_2
 4  1  7  9 d_GUA4_GUA1_RIB1_RIB3_3
 4  1  7  9 d_GUA4_GUA1_RIB1_RIB3_4
 4  1  7  9 d_GUA4_GUA1_RIB1_RIB3_5
 1  7  9 11 d_GUA1_RIB1_RIB3_P1
 7  9 11 12 d_RIB1_RIB3_P1_P2

[ exclusions ]
 1  2  3  4  5  6 
 2  3  4  5  6 
 3  4  5  6 
 4  5  6 
 5  6 
10  7  8  9
 4 1 7 8 9
 1 7 8 9

; This file was generated using the following command:
; /coarse/chris/python_packages/fast_forward/.venv/bin/ff_inter -f mapped.xtc -s mapped.tpr -i DGDP.itp -max-dihedral 5 -plots -itp-only -dists
; 

; Please cite the following papers:
; Brasnett, C; Grunewald, L; Wassenaar, T A; Marrink, S J; Grunewald, F;  2025; https://zenodo.org/badge/latestdoi/327071500
; Kroon, P C; Grunewald, F; Barnoud, J; van Tilburg, M; Souza, P C; Wassenaar, T A; Marrink, S J;  elife 2024; 10.7554/elife.90627.2

[ moleculetype ]
DGDP 1

[ atoms ]
 1 SN1   1 DGDP GUA1  1 0.0 45.0
 2 TP1d  1 DGDP GUA2  2 0.0 45.0
 3 TP1d  1 DGDP GUA3  3 0.0  0.0
 4 TP1a  1 DGDP GUA4  4 0.0 45.0
 5 TN5a  1 DGDP GUA5  5 0.0  0.0
 6 TN3a  1 DGDP GUA6  6 0.0  0.0
 7 TC3   1 DGDP RIB1  7 0.0 54.0
 8 TP1   1 DGDP RIB2  8 0.0 54.0
 9 SN4ar 1 DGDP RIB3  9 0.0 54.0
10 TC4   1 DGDP RIB4 10 0.0  0.0
11 Q5n   1 DGDP P1   11 -1.0 72.0
12 D     1 DGDP P2   12 -2.0 72.0

[ bonds ]

#ifdef FLEXIBLE
 1  7 b_D_GUA1_RIB1
 7  8 b_D_RIB1_RIB2
 7  9 b_D_RIB1_RIB3
 8  9 b_D_RIB2_RIB3
 9 11 b_RIB3_P1
11 12 b_P1_P2
#endif

[ constraints ]
 1  2 1 0.566
 1  4 1 0.483
 2  4 1 0.504

#ifndef FLEXIBLE
 1  7 c_D_GUA1_RIB1
 7  8 c_D_RIB1_RIB2
 7  9 c_D_RIB1_RIB3
 8  9 c_D_RIB2_RIB3
 9 11 c_RIB3_P1
11 12 c_P1_P2
#endif

[ angles ]
 4  1  7 a_GUA4_GUA1_RIB1
 1  7  8 a_D_GUA1_RIB1_RIB2
 1  7  9 a_D_GUA1_RIB1_RIB3
 7  9 11 a_RIB1_RIB3_P1
 9 11 12 a_RIB3_P1_P2

[ virtual_sitesn ]
 3 2  2  4
 5 2  1  2
 6 2  1  1  2  4  4
10 1  7  8  9

[ dihedrals ]
 1  7  8  9 d_GUA1_RIB1_RIB2_RIB3
 4  1  7  9 d_GUA4_GUA1_RIB1_RIB3_1
 4  1  7  9 d_GUA4_GUA1_RIB1_RIB3_2
 4  1  7  9 d_GUA4_GUA1_RIB1_RIB3_3
 4  1  7  9 d_GUA4_GUA1_RIB1_RIB3_4
 4  1  7  9 d_GUA4_GUA1_RIB1_RIB3_5
 1  7  9 11 d_GUA1_RIB1_RIB3_P1
 7  9 11 12 d_RIB1_RIB3_P1_P2

[ exclusions ]
 1  2  3  4  5  6 
 2  3  4  5  6 
 3  4  5  6 
 4  5  6 
 5  6 
10  7  8  9
 4 1 7 8 9
 1 7 8 9

; This file was generated using the following command:
; /coarse/chris/python_packages/fast_forward/.venv/bin/ff_inter -f mapped.xtc -s mapped.tpr -i DGMP.itp -max-dihedral 5 -plots -itp-only -dists
; 

; Please cite the following papers:
; Brasnett, C; Grunewald, L; Wassenaar, T A; Marrink, S J; Grunewald, F;  2025; https://zenodo.org/badge/latestdoi/327071500
; Kroon, P C; Grunewald, F; Barnoud, J; van Tilburg, M; Souza, P C; Wassenaar, T A; Marrink, S J;  elife 2024; 10.7554/elife.90627.2

[ moleculetype ]
DGMP 1

[ atoms ]
 1 SN1   1 DGMP GUA1  1 0.0 45.0
 2 TP1d  1 DGMP GUA2  2 0.0 45.0
 3 TP1d  1 DGMP GUA3  3 0.0  0.0
 4 TP1a  1 DGMP GUA4  4 0.0 45.0
 5 TN5a  1 DGMP GUA5  5 0.0  0.0
 6 TN3a  1 DGMP GUA6  6 0.0  0.0
 7 TC3   1 DGMP RIB1  7 0.0 54.0
 8 TP1   1 DGMP RIB2  8 0.0 54.0
 9 SN4ar 1 DGMP RIB3  9 0.0 54.0
10 TC4   1 DGMP RIB4 10 0.0  0.0
11 D     1 DGMP P1   11 -2.0 72.0

[ bonds ]

#ifdef FLEXIBLE
 1  7 b_D_GUA1_RIB1
 7  8 b_D_RIB1_RIB2
 7  9 b_D_RIB1_RIB3
 8  9 b_D_RIB2_RIB3
 9 11 b_RIB3_P1
#endif

[ constraints ]
 1  2 1 0.566
 1  4 1 0.483
 2  4 1 0.504

#ifndef FLEXIBLE
 1  7 c_D_GUA1_RIB1
 7  8 c_D_RIB1_RIB2
 7  9 c_D_RIB1_RIB3
 8  9 c_D_RIB2_RIB3
 9 11 c_RIB3_P1
#endif

[ angles ]
 4  1  7 a_GUA4_GUA1_RIB1
 1  7  8 a_D_GUA1_RIB1_RIB2
 1  7  9 a_D_GUA1_RIB1_RIB3
 7  9 11 a_RIB1_RIB3_P1

[ virtual_sitesn ]
 3 2  2  4
 5 2  1  2
 6 2  1  1  2  4  4
10 1  7  8  9

[ dihedrals ]
 1  7  8  9 d_GUA1_RIB1_RIB2_RIB3
 4  1  7  9 d_GUA4_GUA1_RIB1_RIB3_1
 4  1  7  9 d_GUA4_GUA1_RIB1_RIB3_2
 4  1  7  9 d_GUA4_GUA1_RIB1_RIB3_3
 4  1  7  9 d_GUA4_GUA1_RIB1_RIB3_4
 4  1  7  9 d_GUA4_GUA1_RIB1_RIB3_5
 1  7  9 11 d_GUA1_RIB1_RIB3_P1

[ exclusions ]
 1  2  3  4  5  6 
 2  3  4  5  6 
 3  4  5  6 
 4  5  6 
 5  6 
10  7  8  9
 4 1 7 8 9
 1 7 8 9

; This file was generated using the following command:
; /coarse/chris/python_packages/fast_forward/.venv/bin/ff_inter -f mapped.xtc -s mapped.tpr -i DGTPH.itp -max-dihedral 5 -plots -itp-only -dists
; 

; Please cite the following papers:
; Brasnett, C; Grunewald, L; Wassenaar, T A; Marrink, S J; Grunewald, F;  2025; https://zenodo.org/badge/latestdoi/327071500
; Kroon, P C; Grunewald, F; Barnoud, J; van Tilburg, M; Souza, P C; Wassenaar, T A; Marrink, S J;  elife 2024; 10.7554/elife.90627.2

[ moleculetype ]
DGTPH 1

[ atoms ]
 1 SN1   1 DGTPH GUA1  1 0.0 45.0
 2 TP1d  1 DGTPH GUA2  2 0.0 45.0
 3 TP1d  1 DGTPH GUA3  3 0.0  0.0
 4 TP1a  1 DGTPH GUA4  4 0.0 45.0
 5 TN5a  1 DGTPH GUA5  5 0.0  0.0
 6 TN3a  1 DGTPH GUA6  6 0.0  0.0
 7 TC3   1 DGTPH RIB1  7 0.0 54.0
 8 TP1   1 DGTPH RIB2  8 0.0 54.0
 9 SN4ar 1 DGTPH RIB3  9 0.0 54.0
10 TC4   1 DGTPH RIB4 10 0.0  0.0
11 Q5n   1 DGTPH P1   11 -1.0 72.0
12 Q5n   1 DGTPH P2   12 -1.0 72.0
13 Q5n   1 DGTPH P3   13 -1.0 72.0

[ bonds ]

#ifdef FLEXIBLE
 1  7 b_D_GUA1_RIB1
 7  8 b_D_RIB1_RIB2
 7  9 b_D_RIB1_RIB3
 8  9 b_D_RIB2_RIB3
 9 11 b_RIB3_P1
11 12 b_H_P1_P2
12 13 b_H_P2_P3
#endif

[ constraints ]
 1  2 1 0.566
 1  4 1 0.483
 2  4 1 0.504

#ifndef FLEXIBLE
 1  7 c_D_GUA1_RIB1
 7  8 c_D_RIB1_RIB2
 7  9 c_D_RIB1_RIB3
 8  9 c_D_RIB2_RIB3
 9 11 c_RIB3_P1
11 12 c_H_P1_P2
12 13 c_H_P2_P3
#endif

[ angles ]
 4  1  7 a_GUA4_GUA1_RIB1
 1  7  8 a_D_GUA1_RIB1_RIB2
 1  7  9 a_D_GUA1_RIB1_RIB3
 7  9 11 a_RIB1_RIB3_P1
 9 11 12 a_RIB3_P1_P2
11 12 13 a_P1_P2_P3

[ virtual_sitesn ]
 3 2  2  4
 5 2  1  2
 6 2  1  1  2  4  4
10 1  7  8  9

[ dihedrals ]
 1  7  8  9 d_GUA1_RIB1_RIB2_RIB3
 4  1  7  9 d_GUA4_GUA1_RIB1_RIB3_1
 4  1  7  9 d_GUA4_GUA1_RIB1_RIB3_2
 4  1  7  9 d_GUA4_GUA1_RIB1_RIB3_3
 4  1  7  9 d_GUA4_GUA1_RIB1_RIB3_4
 4  1  7  9 d_GUA4_GUA1_RIB1_RIB3_5
 1  7  9 11 d_GUA1_RIB1_RIB3_P1
 7  9 11 12 d_RIB1_RIB3_P1_P2
 9 11 12 13 d_RIB3_P1_P2_P3

[ exclusions ]
 1  2  3  4  5  6 
 2  3  4  5  6 
 3  4  5  6 
 4  5  6 
 5  6 
10  7  8  9
 4 1 7 8 9
 1 7 8 9

; This file was generated using the following command:
; /coarse/chris/python_packages/fast_forward/.venv/bin/ff_inter -f mapped.xtc -s mapped.tpr -i DGTP.itp -max-dihedral 5 -plots -itp-only -dists
; 

; Please cite the following papers:
; Brasnett, C; Grunewald, L; Wassenaar, T A; Marrink, S J; Grunewald, F;  2025; https://zenodo.org/badge/latestdoi/327071500
; Kroon, P C; Grunewald, F; Barnoud, J; van Tilburg, M; Souza, P C; Wassenaar, T A; Marrink, S J;  elife 2024; 10.7554/elife.90627.2

[ moleculetype ]
DGTP 1

[ atoms ]
 1 SN1   1 DGTP GUA1  1 0.0 45.0
 2 TP1d  1 DGTP GUA2  2 0.0 45.0
 3 TP1d  1 DGTP GUA3  3 0.0  0.0
 4 TP1a  1 DGTP GUA4  4 0.0 45.0
 5 TN5a  1 DGTP GUA5  5 0.0  0.0
 6 TN3a  1 DGTP GUA6  6 0.0  0.0
 7 TC3   1 DGTP RIB1  7 0.0 54.0
 8 TP1   1 DGTP RIB2  8 0.0 54.0
 9 SN4ar 1 DGTP RIB3  9 0.0 54.0
10 TC4   1 DGTP RIB4 10 0.0  0.0
11 Q5n   1 DGTP P1   11 -1.0 72.0
12 Q5n   1 DGTP P2   12 -1.0 72.0
13 D     1 DGTP P3   13 -2.0 72.0

[ bonds ]

#ifdef FLEXIBLE
 1  7 b_D_GUA1_RIB1
 7  8 b_D_RIB1_RIB2
 7  9 b_D_RIB1_RIB3
 8  9 b_D_RIB2_RIB3
 9 11 b_RIB3_P1
11 12 b_P1_P2
12 13 b_P2_P3
#endif

[ constraints ]
 1  2 1 0.566
 1  4 1 0.483
 2  4 1 0.504

#ifndef FLEXIBLE
 1  7 c_D_GUA1_RIB1
 7  8 c_D_RIB1_RIB2
 7  9 c_D_RIB1_RIB3
 8  9 c_D_RIB2_RIB3
 9 11 c_RIB3_P1
11 12 c_P1_P2
12 13 c_P2_P3
#endif

[ angles ]
 4  1  7 a_GUA4_GUA1_RIB1
 1  7  8 a_D_GUA1_RIB1_RIB2
 1  7  9 a_D_GUA1_RIB1_RIB3
 7  9 11 a_RIB1_RIB3_P1
 9 11 12 a_RIB3_P1_P2
11 12 13 a_P1_P2_P3

[ virtual_sitesn ]
 3 2  2  4
 5 2  1  2
 6 2  1  1  2  4  4
10 1  7  8  9

[ dihedrals ]
 1  7  8  9 d_GUA1_RIB1_RIB2_RIB3
 4  1  7  9 d_GUA4_GUA1_RIB1_RIB3_1
 4  1  7  9 d_GUA4_GUA1_RIB1_RIB3_2
 4  1  7  9 d_GUA4_GUA1_RIB1_RIB3_3
 4  1  7  9 d_GUA4_GUA1_RIB1_RIB3_4
 4  1  7  9 d_GUA4_GUA1_RIB1_RIB3_5
 1  7  9 11 d_GUA1_RIB1_RIB3_P1
 7  9 11 12 d_RIB1_RIB3_P1_P2
 9 11 12 13 d_RIB3_P1_P2_P3

[ exclusions ]
 1  2  3  4  5  6 
 2  3  4  5  6 
 3  4  5  6 
 4  5  6 
 5  6 
10  7  8  9
 4 1 7 8 9
 1 7 8 9

; This file was generated using the following command:
; /coarse/chris/python_packages/fast_forward/.venv/bin/ff_inter -f mapped.xtc -s mapped.tpr -i DGUO.itp -max-dihedral 5 -plots -itp-only -dists
; 

; Please cite the following papers:
; Brasnett, C; Grunewald, L; Wassenaar, T A; Marrink, S J; Grunewald, F;  2025; https://zenodo.org/badge/latestdoi/327071500
; Kroon, P C; Grunewald, F; Barnoud, J; van Tilburg, M; Souza, P C; Wassenaar, T A; Marrink, S J;  elife 2024; 10.7554/elife.90627.2

[ moleculetype ]
DGUO 1

[ atoms ]
 1 SN1   1 DGUO GUA1  1 0.0 45.0
 2 TP1d  1 DGUO GUA2  2 0.0 45.0
 3 TP1d  1 DGUO GUA3  3 0.0  0.0
 4 TP1a  1 DGUO GUA4  4 0.0 45.0
 5 TN5a  1 DGUO GUA5  5 0.0  0.0
 6 TN3a  1 DGUO GUA6  6 0.0  0.0
 7 TC3   1 DGUO RIB1  7 0.0 54.0
 8 TP1   1 DGUO RIB2  8 0.0 54.0
 9 SN4ar 1 DGUO RIB3  9 0.0 54.0
10 TC4   1 DGUO RIB4 10 0.0  0.0

[ bonds ]

#ifdef FLEXIBLE
 1  7 b_D_GUA1_RIB1
 7  8 b_D_RIB1_RIB2
 7  9 b_D_RIB1_RIB3
 8  9 b_D_RIB2_RIB3
#endif

[ constraints ]
 1  2 1 0.566
 1  4 1 0.483
 2  4 1 0.504

#ifndef FLEXIBLE
 1  7 c_D_GUA1_RIB1
 7  8 c_D_RIB1_RIB2
 7  9 c_D_RIB1_RIB3
 8  9 c_D_RIB2_RIB3
#endif

[ angles ]
 4  1  7 a_GUA4_GUA1_RIB1
 1  7  8 a_D_GUA1_RIB1_RIB2
 1  7  9 a_D_GUA1_RIB1_RIB3

[ virtual_sitesn ]
 3 2  2  4
 5 2  1  2
 6 2  1  1  2  4  4
10 1  7  8  9

[ dihedrals ]
 1  7  8  9 d_GUA1_RIB1_RIB2_RIB3
 4  1  7  9 d_GUA4_GUA1_RIB1_RIB3_1
 4  1  7  9 d_GUA4_GUA1_RIB1_RIB3_2
 4  1  7  9 d_GUA4_GUA1_RIB1_RIB3_3
 4  1  7  9 d_GUA4_GUA1_RIB1_RIB3_4
 4  1  7  9 d_GUA4_GUA1_RIB1_RIB3_5

[ exclusions ]
 1  2  3  4  5  6 
 2  3  4  5  6 
 3  4  5  6 
 4  5  6 
 5  6 
10  7  8  9
 4 1 7 8 9
 1 7 8 9

; This file was generated using the following command:
; ff_inter -f mapped.xtc -s mapped.gro -i DHAP.itp -dists -plots
;

; Please cite the following papers:
; Brasnett, C; Grunewald, L; Wassenaar, T A; Marrink, S J; Grunewald, F;  2025; https://zenodo.org/badge/latestdoi/327071500
; Kroon, P C; Grunewald, F; Barnoud, J; van Tilburg, M; Souza, P C; Wassenaar, T A; Marrink, S J;  elife 2024; 10.7554/elife.90627.2

[ moleculetype ]
DHAP 1

[ atoms ]
1 TP1  1 DHAP ALC1 1  0.0 36.0
2 SN5a 1 DHAP CO1  2  0.0 54.0
3 D    1 DHAP P1   3 -2.0 72.0

[ bonds ]
#ifdef FLEXIBLE
1 2 1 0.271 10000 ; ALC1_CO1
2 3 1 0.317 10000 ; CO1_P1
#endif

[ constraints ]
#ifndef FLEXIBLE
1 2 1 0.271 ; ALC1_CO1
2 3 1 0.317 ; CO1_P1
#endif

[ angles ]
1 2 3 10 104.097 53.305 ; ALC1_CO1_P1

[ exclusions ]
1 2 3
2 1 3
3 1 2

; This file was generated using the following command:
; /coarse/chris/python_packages/fast_forward/.venv/bin/ff_inter -f mapped.xtc -s mapped.tpr -i DNAD.itp -max-dihedral 5 -plots -itp-only -dists
; 

; Please cite the following papers:
; Brasnett, C; Grunewald, L; Wassenaar, T A; Marrink, S J; Grunewald, F;  2025; https://zenodo.org/badge/latestdoi/327071500
; Kroon, P C; Grunewald, F; Barnoud, J; van Tilburg, M; Souza, P C; Wassenaar, T A; Marrink, S J;  elife 2024; 10.7554/elife.90627.2

[ moleculetype ]
DNAD 1

[ atoms ]
 1 SN1   1 DNAD ADE1  1  0.0 45.0
 2 TN3a  1 DNAD ADE2  2  0.0 45.0
 3 TN5a  1 DNAD ADE3  3  0.0  0.0
 4 TP1d  1 DNAD ADE4  4  0.0 45.0
 5 TN3a  1 DNAD ADE5  5  0.0 45.0
 6 TC6   1 DNAD ADE6  6  0.0  0.0
 7 TC3   1 DNAD RIB1  7  0.0 54.0
 8 TP1   1 DNAD RIB2  8  0.0 54.0
 9 SN4ar 1 DNAD RIB3  9  0.0 54.0
10 TC4   1 DNAD RIB4 10  0.0  0.0
11 Q5n   1 DNAD P1   11 -1.0 72.0
12 Q5n   1 DNAD P2   12 -1.0 72.0
13 SN4ar 1 DNAD RIB5 13  0.0 54.0
14 TP1   1 DNAD RIB6 14  0.0 54.0
15 SN6   1 DNAD RIB7 15  0.0 54.0
16 TC4   1 DNAD RIB8 16  0.0  0.0
17 TQ2   1 DNAD ARO1 17  1.0 48.0   
18 TC5   1 DNAD ARO2 18  0.0 48.0    
19 TC5   1 DNAD ARO3 19  0.0  0.0
20 SQ5n  1 DNAD CAC1 20 -1.0 66.0

[ bonds ]
 1  7 b_ADE1_RIB1
 7  8 b_RIB1_RIB2
14 15 b_RIB1_RIB2

#ifdef FLEXIBLE
 7  9 b_RIB1_RIB3
13 15 b_RIB1_RIB3 ; same in reverse
 8  9 b_RIB2_RIB3
13 14 b_RIB2_RIB3 ; same in reverse
 9 11 b_RIB3_P1
12 13 b_RIB3_P1 ; same in reverse
11 12 b_P1_P2

15 17 b_RIB7_ARO1
17 18 b_ARO1_ARO2
17 20 b_ARO1_CAC1
18 20 b_ARO2_CAC1
#endif

[ constraints ]
 1  2 1 0.268
 1  5 1 0.287
 4  5 1 0.316
 2  5 1 0.353
 2  4 1 0.417

#ifndef FLEXIBLE
 7  9 c_RIB1_RIB3
13 15 c_RIB1_RIB3
 8  9 c_RIB2_RIB3
13 14 c_RIB2_RIB3
 9 11 c_RIB3_P1
12 13 c_RIB3_P1
11 12 c_P1_P2

15 17 c_RIB7_ARO1
17 18 c_ARO1_ARO2
17 20 c_ARO1_CAC1
18 20 c_ARO2_CAC1
#endif

[ angles ]
 2  1  7 a_ADE2_ADE1_RIB1
 1  7  8 a_ADE1_RIB1_RIB2
 1  7  9 a_ADE1_RIB1_RIB3
 7  9 11 a_RIB1_RIB3_P1
 9 11 12 a_RIB3_P1_P2
11 12 13 a_RIB3_P1_P2 ; same in reverse
12 13 15 a_RIB1_RIB3_P1 ; same in reverse
13 15 17 a_RIB5_RIB7_ARO1
15 17 20 a_RIB7_ARO1_CAC1

[ virtual_sitesn ]
 6 2  2  5
10 1  7  8  9
16 1 13 14 15

[ dihedrals ]
 1  2  5  4 d_ADE1_ADE2_ADE5_ADE4
 1  7  9 11 d_ADE1_RIB1_RIB3_P1
 2  1  7  9 d_ADE2_ADE1_RIB1_RIB3_1
 2  1  7  9 d_ADE2_ADE1_RIB1_RIB3_2
 2  1  7  9 d_ADE2_ADE1_RIB1_RIB3_3
 2  1  7  9 d_ADE2_ADE1_RIB1_RIB3_4
 2  1  7  9 d_ADE2_ADE1_RIB1_RIB3_5
 7  9 11 12 d_RIB1_RIB3_P1_P2
 1  7  8  9 d_ADE1_RIB1_RIB2_RIB3 
 
 9 11 12 13 d_RIB3_P1_P2_RIB5
11 12 13 15 d_P1_P2_RIB5_RIB7
12 13 15 17 d_P2_RIB5_RIB7_ARO1
13 15 17 20 d_RIB5_RIB7_ARO1_CAC1

[ virtual_sites3 ]
 3  5  2  4 2 0.52 0.373
19 17 18 20 2 0.658 0.182 ; ARO3_ARO1_ARO2_CAC1

[ exclusions ]
 1  2  3  4  5  6 
 2  3  4  5  6 
 3  4  5  6 
 4  5  6 
 5  6 
10  7  8  9 
16 13 14 15
19 17 18 20

; This file was generated using the following command:
; ff_inter -f mapped.xtc -s mapped.tpr -i DPP.itp -plots -dists
;

; Please cite the following papers:
; Brasnett, C; Grunewald, L; Wassenaar, T A; Marrink, S J; Grunewald, F;  2025; https://zenodo.org/badge/latestdoi/327071500
; Kroon, P C; Grunewald, F; Barnoud, J; van Tilburg, M; Souza, P C; Wassenaar, T A; Marrink, S J;  elife 2024; 10.7554/elife.90627.2

[ moleculetype ]
DPP 1

[ atoms ]
1 Q5 1 DPP P1 1 -1.0 72.0
2 Q5 1 DPP P2 2 -1.0 72.0

[ bonds ]
#ifdef FLEXIBLE
1 2 1 0.303 10000 ; P1_P2
#endif

[ constraints ]
#ifndef FLEXIBLE
1 2 1 0.303 ; P1_P2
#endif

;
; Topology prepared automatically using PyCGTOOL
; James Graham <J.A.Graham@soton.ac.uk> 2016
; University of Southampton
; https://github.com/jag1g13/pycgtool
;

[ moleculetype ]
DR1P    1

[ atoms ]
   1 TC3     1 DR1P RIB1    1    0.000     36.0
   2 TP1     1 DR1P RIB2    2    0.000     36.0
   3 SP1r    1 DR1P RIB3    3    0.000     54.0
   4 D       1 DR1P P1      4   -2.000    
   5 TC4     1 DR1P RIB4    5    0.000     0

[ bonds ]
   1    2    1      0.283  13019 ; RIB1_RIB2
   1    3    1      0.403   9594 ; RIB1_RIB3
   2    3    1      0.320   9761 ; RIB2_RIB3
   1    4    1      0.300  11138 ; RIB1_P1

[ angles ]
   2    1    4    2    109     50 ; RIB2_RIB1_P1
   3    1    4    2    112    130 ; RIB3_RIB1_P1

[ virtual_sitesn ]
5 1 1 2 3

[ exclusions ]
5 1 2 3 4
;
; Topology prepared automatically using PyCGTOOL
; James Graham <J.A.Graham@soton.ac.uk> 2016
; University of Southampton
; https://github.com/jag1g13/pycgtool
;

[ moleculetype ]
DR5P    1

[ atoms ]
   1 SN6     1 DR5P RIB1    1    0.000    54.0
   2 TP1     1 DR5P RIB2    2    0.000    36.0
   3 SN4ar   1 DR5P RIB3    3    0.000    54.0
   4 D       1 DR5P P1      4   -2.000
   5 TC4     1 DR5P RIB4    5    0.000    0

[ bonds ]
   1    3    1      0.346  14692 ; RIB1_RIB3
   2    3    1      0.304   9947 ; RIB2_RIB3
   1    2    1      0.330  25000 ; RIB1_RIB2
   3    4    1      0.328  50000 ; RIB3_P1

[ angles ]
   1    3    4    2    139    129 ; RIB1_RIB3_P1
   2    3    4    2     80     30 ; RIB2_RIB3_P1

[ virtual_sitesn ]
5 1 1 2 3

[ exclusions ]
5 1 2 3 4
; This file was generated using the following command:
; /coarse/chris/python_packages/fast_forward/.venv/bin/ff_inter -f mapped.xtc -s mapped.tpr -i DTDPHH.itp -max-dihedral 5 -plots -itp-only -dists
; 

; Please cite the following papers:
; Kroon, P C; Grunewald, F; Barnoud, J; van Tilburg, M; Souza, P C; Wassenaar, T A; Marrink, S J;  elife 2024; 10.7554/elife.90627.2
; Brasnett, C; Grunewald, L; Wassenaar, T A; Marrink, S J; Grunewald, F;  2025; https://zenodo.org/badge/latestdoi/327071500

[ moleculetype ]
DTDPH 1

[ atoms ]
 1 SN1   1 DTDPH THY1  1  0.0 57.0
 2 TP1a  1 DTDPH THY2  2  0.0 57.0
 3 TN5d  1 DTDPH THY3  3  0.0  0.0
 4 TP1a  1 DTDPH THY4  4  0.0 57.0
 5 TC2   1 DTDPH THY5  5  0.0  0.0
 6 TC3   1 DTDPH RIB1  6  0.0 54.0
 7 TP1   1 DTDPH RIB2  7  0.0 54.0
 8 SN4ar 1 DTDPH RIB3  8  0.0 54.0
 9 TC4   1 DTDPH RIB4  9  0.0  0.0
10 Q5n   1 DTDPH P1   10 -1.0 72.0
11 Q5n   1 DTDPH P2   11 -1.0 72.0

[ bonds ]
 1  6 b_THY1_RIB1
#ifdef FLEXIBLE
 6  7 b_D_RIB1_RIB2
 6  8 b_D_RIB1_RIB3
 7  8 b_D_RIB2_RIB3
 8 10 b_RIB3_P1
10 11 b_H_P1_P2
#endif

[ constraints ]
 1  2 1 0.286
 1  4 1 0.371
 2  4 1 0.449

#ifndef FLEXIBLE
 6  7 c_D_RIB1_RIB2
 6  8 c_D_RIB1_RIB3
 7  8 c_D_RIB2_RIB3
 8 10 c_RIB3_P1
10 11 c_H_P1_P2
#endif

[ angles ]
 1  6  7 a_THY1_RIB1_RIB2
 1  6  8 a_THY1_RIB1_RIB3  
 2  1  6 a_THY2_THY1_RIB1  
 5  1  6 a_THY5_THY1_RIB1  
 6  8 10 a_RIB1_RIB3_P1
 8 10 11 a_RIB3_P1_P2

[ virtual_sitesn ]
 3 2  2  4
 9 1  6  7  8

[ virtual_sites3 ]
5 2 1 4 2 0.401 0.418 ; THY5_THY1_THY2_THY4

[ dihedrals ]
 1  6  7  8 d_THY1_RIB1_RIB2_RIB3
 2  1  6  8 d_THY2_THY1_RIB1_RIB3
 5  1  6  8 d_THY5_THY1_RIB1_RIB3
 1  6  8 10 d_THY1_RIB1_RIB3_P1
 6  8 10 11 d_RIB1_RIB3_P1_P2

[ exclusions ]
 1  2  3  4  5  6  7  8  9
 2  3  4  5  6  7  8  9
 3  4  5  6  7  8  9
 4  5  6  7  8  9
 5  6  7  8  9
 6  7  8  9
 7  8  9
 8  9

; This file was generated using the following command:
; /coarse/chris/python_packages/fast_forward/.venv/bin/ff_inter -f mapped.xtc -s mapped.tpr -i DTDPH.itp -max-dihedral 5 -plots -itp-only -dists
; 

; Please cite the following papers:
; Kroon, P C; Grunewald, F; Barnoud, J; van Tilburg, M; Souza, P C; Wassenaar, T A; Marrink, S J;  elife 2024; 10.7554/elife.90627.2
; Brasnett, C; Grunewald, L; Wassenaar, T A; Marrink, S J; Grunewald, F;  2025; https://zenodo.org/badge/latestdoi/327071500

[ moleculetype ]
DTDP 1

[ atoms ]
 1 SN1   1 DTDP THY1  1  0.0 57.0
 2 TP1a  1 DTDP THY2  2  0.0 57.0
 3 TN5d  1 DTDP THY3  3  0.0  0.0
 4 TP1a  1 DTDP THY4  4  0.0 57.0
 5 TC2   1 DTDP THY5  5  0.0  0.0
 6 TC3   1 DTDP RIB1  6  0.0 54.0
 7 TP1   1 DTDP RIB2  7  0.0 54.0
 8 SN4ar 1 DTDP RIB3  8  0.0 54.0
 9 TC4   1 DTDP RIB4  9  0.0  0.0
10 Q5n   1 DTDP P1   10 -1.0 72.0
11 D     1 DTDP P2   11 -2.0 72.0

[ bonds ]
 1  6 b_THY1_RIB1
#ifdef FLEXIBLE
 6  7 b_D_RIB1_RIB2
 6  8 b_D_RIB1_RIB3
 7  8 b_D_RIB2_RIB3
 8 10 b_RIB3_P1
10 11 b_P1_P2
#endif

[ constraints ]
 1  2 1 0.286
 1  4 1 0.371
 2  4 1 0.449

#ifndef FLEXIBLE
 6  7 c_D_RIB1_RIB2
 6  8 c_D_RIB1_RIB3
 7  8 c_D_RIB2_RIB3
 8 10 c_RIB3_P1
10 11 c_P1_P2
#endif

[ angles ]
 1  6  7 a_THY1_RIB1_RIB2
 1  6  8 a_THY1_RIB1_RIB3  
 2  1  6 a_THY2_THY1_RIB1  
 5  1  6 a_THY5_THY1_RIB1  
 6  8 10 a_RIB1_RIB3_P1
 8 10 11 a_RIB3_P1_P2

[ virtual_sitesn ]
 3 2  2  4
 9 1  6  7  8

[ virtual_sites3 ]
5 2 1 4 2 0.401 0.418 ; THY5_THY1_THY2_THY4

[ dihedrals ]
 1  6  7  8 d_THY1_RIB1_RIB2_RIB3
 2  1  6  8 d_THY2_THY1_RIB1_RIB3
 5  1  6  8 d_THY5_THY1_RIB1_RIB3
 1  6  8 10 d_THY1_RIB1_RIB3_P1
 6  8 10 11 d_RIB1_RIB3_P1_P2

[ exclusions ]
 1  2  3  4  5  6  7  8  9
 2  3  4  5  6  7  8  9
 3  4  5  6  7  8  9
 4  5  6  7  8  9
 5  6  7  8  9
 6  7  8  9
 7  8  9
 8  9

; This file was generated using the following command:
; /coarse/chris/python_packages/fast_forward/.venv/bin/ff_inter -f mapped.xtc -s mapped.tpr -i DTMPH.itp -max-dihedral 5 -plots -itp-only -dists
; 

; Please cite the following papers:
; Kroon, P C; Grunewald, F; Barnoud, J; van Tilburg, M; Souza, P C; Wassenaar, T A; Marrink, S J;  elife 2024; 10.7554/elife.90627.2
; Brasnett, C; Grunewald, L; Wassenaar, T A; Marrink, S J; Grunewald, F;  2025; https://zenodo.org/badge/latestdoi/327071500

[ moleculetype ]
DTMP 1

[ atoms ]
 1 SN1   1 DTMP THY1  1  0.0 57.0
 2 TP1a  1 DTMP THY2  2  0.0 57.0
 3 TN5d  1 DTMP THY3  3  0.0  0.0
 4 TP1a  1 DTMP THY4  4  0.0 57.0
 5 TC2   1 DTMP THY5  5  0.0  0.0
 6 TC3   1 DTMP RIB1  6  0.0 54.0
 7 TP1   1 DTMP RIB2  7  0.0 54.0
 8 SN4ar 1 DTMP RIB3  8  0.0 54.0
 9 TC4   1 DTMP RIB4  9  0.0  0.0
10 D     1 DTMP P1   10 -2.0 72.0

[ bonds ]
 1  6 b_THY1_RIB1
#ifdef FLEXIBLE
 6  7 b_D_RIB1_RIB2
 6  8 b_D_RIB1_RIB3
 7  8 b_D_RIB2_RIB3
 8 10 b_RIB3_P1
#endif

[ constraints ]
 1  2 1 0.286
 1  4 1 0.371
 2  4 1 0.449

#ifndef FLEXIBLE
 6  7 c_D_RIB1_RIB2
 6  8 c_D_RIB1_RIB3
 7  8 c_D_RIB2_RIB3
 8 10 c_RIB3_P1
#endif

[ angles ]
 1  6  7 a_THY1_RIB1_RIB2
 1  6  8 a_THY1_RIB1_RIB3  
 2  1  6 a_THY2_THY1_RIB1  
 5  1  6 a_THY5_THY1_RIB1  
 6  8 10 a_RIB1_RIB3_P1

[ virtual_sitesn ]
 3 2  2  4
 9 1  6  7  8

[ virtual_sites3 ]
5 2 1 4 2 0.401 0.418 ; THY5_THY1_THY2_THY4

[ dihedrals ]
 1  6  7  8 d_THY1_RIB1_RIB2_RIB3
 2  1  6  8 d_THY2_THY1_RIB1_RIB3
 5  1  6  8 d_THY5_THY1_RIB1_RIB3
 1  6  8 10 d_THY1_RIB1_RIB3_P1


[ exclusions ]
 1  2  3  4  5  6  7  8  9
 2  3  4  5  6  7  8  9
 3  4  5  6  7  8  9
 4  5  6  7  8  9
 5  6  7  8  9
 6  7  8  9
 7  8  9
 8  9

; This file was generated using the following command:
; /coarse/chris/python_packages/fast_forward/.venv/bin/ff_inter -f mapped.xtc -s mapped.tpr -i DTDPH.itp -max-dihedral 5 -plots -itp-only -dists
; 

; Please cite the following papers:
; Kroon, P C; Grunewald, F; Barnoud, J; van Tilburg, M; Souza, P C; Wassenaar, T A; Marrink, S J;  elife 2024; 10.7554/elife.90627.2
; Brasnett, C; Grunewald, L; Wassenaar, T A; Marrink, S J; Grunewald, F;  2025; https://zenodo.org/badge/latestdoi/327071500

[ moleculetype ]
DTTPH 1

[ atoms ]
 1 SN1   1 DTTPH THY1  1  0.0 57.0
 2 TP1a  1 DTTPH THY2  2  0.0 57.0
 3 TN5d  1 DTTPH THY3  3  0.0  0.0
 4 TP1a  1 DTTPH THY4  4  0.0 57.0
 5 TC2   1 DTTPH THY5  5  0.0  0.0
 6 TC3   1 DTTPH RIB1  6  0.0 54.0
 7 TP1   1 DTTPH RIB2  7  0.0 54.0
 8 SN4ar 1 DTTPH RIB3  8  0.0 54.0
 9 TC4   1 DTTPH RIB4  9  0.0  0.0
10 Q5n   1 DTTPH P1   10 -1.0 72.0
11 Q5n   1 DTTPH P2   11 -1.0 72.0
12 Q5n   1 DTTPH P3   12 -1.0 72.0

[ bonds ]
 1  6 b_THY1_RIB1
#ifdef FLEXIBLE
 6  7 b_D_RIB1_RIB2
 6  8 b_D_RIB1_RIB3
 7  8 b_D_RIB2_RIB3
 8 10 b_RIB3_P1
10 11 b_H_P1_P2
11 12 b_H_P2_P3
#endif

[ constraints ]
 1  2 1 0.286
 1  4 1 0.371
 2  4 1 0.449

#ifndef FLEXIBLE
 6  7 c_D_RIB1_RIB2
 6  8 c_D_RIB1_RIB3
 7  8 c_D_RIB2_RIB3
 8 10 c_RIB3_P1
10 11 c_H_P1_P2
11 12 c_H_P2_P3
#endif

[ angles ]
 1  6  7 a_THY1_RIB1_RIB2
 1  6  8 a_THY1_RIB1_RIB3  
 2  1  6 a_THY2_THY1_RIB1  
 5  1  6 a_THY5_THY1_RIB1  
 6  8 10 a_RIB1_RIB3_P1
 8 10 11 a_RIB3_P1_P2
10 11 12 a_P1_P2_P3

[ virtual_sitesn ]
 3 2  2  4
 9 1  6  7  8

[ virtual_sites3 ]
5 2 1 4 2 0.401 0.418 ; THY5_THY1_THY2_THY4

[ dihedrals ]
 1  6  7  8 d_THY1_RIB1_RIB2_RIB3
 2  1  6  8 d_THY2_THY1_RIB1_RIB3
 5  1  6  8 d_THY5_THY1_RIB1_RIB3 
 1  6  8 10 d_THY1_RIB1_RIB3_P1
 6  8 10 11 d_RIB1_RIB3_P1_P2
 8 10 11 12 d_RIB3_P1_P2_P3

[ exclusions ]
 1  2  3  4  5  6  7  8  9
 2  3  4  5  6  7  8  9
 3  4  5  6  7  8  9
 4  5  6  7  8  9
 5  6  7  8  9
 6  7  8  9
 7  8  9
 8  9

; This file was generated using the following command:
; /coarse/chris/python_packages/fast_forward/.venv/bin/ff_inter -f mapped.xtc -s mapped.tpr -i DTDPH.itp -max-dihedral 5 -plots -itp-only -dists
; 

; Please cite the following papers:
; Kroon, P C; Grunewald, F; Barnoud, J; van Tilburg, M; Souza, P C; Wassenaar, T A; Marrink, S J;  elife 2024; 10.7554/elife.90627.2
; Brasnett, C; Grunewald, L; Wassenaar, T A; Marrink, S J; Grunewald, F;  2025; https://zenodo.org/badge/latestdoi/327071500

[ moleculetype ]
DTTP 1

[ atoms ]
 1 SN1   1 DTTP THY1  1  0.0 57.0
 2 TP1a  1 DTTP THY2  2  0.0 57.0
 3 TN5d  1 DTTP THY3  3  0.0  0.0
 4 TP1a  1 DTTP THY4  4  0.0 57.0
 5 TC2   1 DTTP THY5  5  0.0  0.0
 6 TC3   1 DTTP RIB1  6  0.0 54.0
 7 TP1   1 DTTP RIB2  7  0.0 54.0
 8 SN4ar 1 DTTP RIB3  8  0.0 54.0
 9 TC4   1 DTTP RIB4  9  0.0  0.0
10 Q5n   1 DTTP P1   10 -1.0 72.0
11 Q5n   1 DTTP P2   11 -1.0 72.0
12 D     1 DTTP P3   12 -2.0 72.0

[ bonds ]
 1  6 b_THY1_RIB1
#ifdef FLEXIBLE
 6  7 b_D_RIB1_RIB2
 6  8 b_D_RIB1_RIB3
 7  8 b_D_RIB2_RIB3
 8 10 b_RIB3_P1
10 11 b_P1_P2
11 12 b_P2_P3
#endif

[ constraints ]
 1  2 1 0.286
 1  4 1 0.371
 2  4 1 0.449

#ifndef FLEXIBLE
 6  7 c_D_RIB1_RIB2
 6  8 c_D_RIB1_RIB3
 7  8 c_D_RIB2_RIB3
 8 10 c_RIB3_P1
10 11 c_P1_P2
11 12 c_P2_P3
#endif

[ angles ]
 1  6  7 a_THY1_RIB1_RIB2
 1  6  8 a_THY1_RIB1_RIB3  
 2  1  6 a_THY2_THY1_RIB1  
 5  1  6 a_THY5_THY1_RIB1  
 6  8 10 a_RIB1_RIB3_P1
 8 10 11 a_RIB3_P1_P2
10 11 12 a_P1_P2_P3

[ virtual_sitesn ]
 3 2  2  4
 9 1  6  7  8

[ virtual_sites3 ]
5 2 1 4 2 0.401 0.418 ; THY5_THY1_THY2_THY4

[ dihedrals ]
 1  6  7  8 d_THY1_RIB1_RIB2_RIB3
 2  1  6  8 d_THY2_THY1_RIB1_RIB3
 5  1  6  8 d_THY5_THY1_RIB1_RIB3
 1  6  8 10 d_THY1_RIB1_RIB3_P1
 6  8 10 11 d_RIB1_RIB3_P1_P2
 8 10 11 12 d_RIB3_P1_P2_P3

[ exclusions ]
 1  2  3  4  5  6  7  8  9
 2  3  4  5  6  7  8  9
 3  4  5  6  7  8  9
 4  5  6  7  8  9
 5  6  7  8  9
 6  7  8  9
 7  8  9
 8  9

; This file was generated using the following command:
; /coarse/chris/python_packages/fast_forward/.venv/bin/ff_inter -f mapped.xtc -s mapped.tpr -i DUDPH.itp -max-dihedral 5 -plots -itp-only -dists
; 

; Please cite the following papers:
; Kroon, P C; Grunewald, F; Barnoud, J; van Tilburg, M; Souza, P C; Wassenaar, T A; Marrink, S J;  elife 2024; 10.7554/elife.90627.2
; Brasnett, C; Grunewald, L; Wassenaar, T A; Marrink, S J; Grunewald, F;  2025; https://zenodo.org/badge/latestdoi/327071500

[ moleculetype ]
DUDPH 1

[ atoms ]
 1 SN1   1 DUDPH URA1  1  0.0 45.0
 2 TP1a  1 DUDPH URA2  2  0.0 45.0
 3 TN5d  1 DUDPH URA3  3  0.0  0.0
 4 TP1a  1 DUDPH URA4  4  0.0 45.0
 5 TC5   1 DUDPH URA5  5  0.0  0.0
 6 TC3   1 DUDPH RIB1  6  0.0 54.0
 7 TP1   1 DUDPH RIB2  7  0.0 54.0
 8 SN4ar 1 DUDPH RIB3  8  0.0 54.0
 9 TC4   1 DUDPH RIB4  9  0.0  0.0
10 Q5n   1 DUDPH P1   10 -1.0 72.0
11 Q5n   1 DUDPH P2   11 -1.0 72.0

[ bonds ]
#ifdef FLEXIBLE
 1  6 b_D_URA1_RIB1
 6  7 b_D_RIB1_RIB2
 6  8 b_D_RIB1_RIB3
 7  8 b_D_RIB2_RIB3
 8 10 b_RIB3_P1
10 11 b_H_P1_P2
#endif

[ constraints ]
 1  2 1 0.290
 1  4 1 0.374
 2  4 1 0.451

#ifndef FLEXIBLE
 1  6 c_D_URA1_RIB1
 6  7 c_D_RIB1_RIB2
 6  8 c_D_RIB1_RIB3
 7  8 c_D_RIB2_RIB3
 8 10 c_RIB3_P1
10 11 c_H_P1_P2
#endif

[ angles ]
 2  1  6 a_URA2_URA1_RIB1
 1  6  7 a_D_URA1_RIB1_RIB2
 1  6  8 a_D_URA1_RIB1_RIB3
 8 10 11 a_RIB3_P1_P2
 6  8 10 a_RIB1_RIB3_P1

[ virtual_sitesn ]
 3 2  2  4
 5 2  1  4
 9 1  6  7  8

[ dihedrals ]
 1  2  4  5 2 0.0 100.0

 2  1  6  8 d_URA2_URA1_RIB1_RIB3_1
 2  1  6  8 d_URA2_URA1_RIB1_RIB3_2
 2  1  6  8 d_URA2_URA1_RIB1_RIB3_3
 2  1  6  8 d_URA2_URA1_RIB1_RIB3_4
 2  1  6  8 d_URA2_URA1_RIB1_RIB3_5

 1  6  7  8 d_URA1_RIB1_RIB2_RIB3

 1  6  8 10 d_URA1_RIB1_RIB3_P1
 6  8 10 11 d_RIB1_RIB3_P1_P2

[ exclusions ]
 1  2  3  4  5 
 2  3  4  5 
 3  4  5 
 4  5 
 9  6  7  8 


; This file was generated using the following command:
; /coarse/chris/python_packages/fast_forward/.venv/bin/ff_inter -f mapped.xtc -s mapped.tpr -i DUDPH.itp -max-dihedral 5 -plots -itp-only -dists
; 

; Please cite the following papers:
; Kroon, P C; Grunewald, F; Barnoud, J; van Tilburg, M; Souza, P C; Wassenaar, T A; Marrink, S J;  elife 2024; 10.7554/elife.90627.2
; Brasnett, C; Grunewald, L; Wassenaar, T A; Marrink, S J; Grunewald, F;  2025; https://zenodo.org/badge/latestdoi/327071500

[ moleculetype ]
DUDP 1

[ atoms ]
 1 SN1   1 DUDP URA1  1  0.0 45.0
 2 TP1a  1 DUDP URA2  2  0.0 45.0
 3 TN5d  1 DUDP URA3  3  0.0  0.0
 4 TP1a  1 DUDP URA4  4  0.0 45.0
 5 TC5   1 DUDP URA5  5  0.0  0.0
 6 TC3   1 DUDP RIB1  6  0.0 54.0
 7 TP1   1 DUDP RIB2  7  0.0 54.0
 8 SN4ar 1 DUDP RIB3  8  0.0 54.0
 9 TC4   1 DUDP RIB4  9  0.0  0.0
10 Q5n   1 DUDP P1   10 -1.0 72.0
11 D     1 DUDP P2   11 -2.0 72.0

[ bonds ]
#ifdef FLEXIBLE
 1  6 b_D_URA1_RIB1
 6  7 b_D_RIB1_RIB2
 6  8 b_D_RIB1_RIB3
 7  8 b_D_RIB2_RIB3
 8 10 b_RIB3_P1
10 11 b_P1_P2
#endif

[ constraints ]
 1  2 1 0.290
 1  4 1 0.374
 2  4 1 0.451

#ifndef FLEXIBLE
 1  6 c_D_URA1_RIB1
 6  7 c_D_RIB1_RIB2
 6  8 c_D_RIB1_RIB3
 7  8 c_D_RIB2_RIB3
 8 10 c_RIB3_P1
10 11 c_P1_P2
#endif

[ angles ]
 2  1  6 a_URA2_URA1_RIB1
 1  6  7 a_D_URA1_RIB1_RIB2
 1  6  8 a_D_URA1_RIB1_RIB3
 8 10 11 a_RIB3_P1_P2
 6  8 10 a_RIB1_RIB3_P1

[ virtual_sitesn ]
 3 2  2  4
 5 2  1  4
 9 1  6  7  8

[ dihedrals ]
 1  2  4  5 2 0.0 100.0

 2  1  6  8 d_URA2_URA1_RIB1_RIB3_1
 2  1  6  8 d_URA2_URA1_RIB1_RIB3_2
 2  1  6  8 d_URA2_URA1_RIB1_RIB3_3
 2  1  6  8 d_URA2_URA1_RIB1_RIB3_4
 2  1  6  8 d_URA2_URA1_RIB1_RIB3_5

 1  6  7  8 d_URA1_RIB1_RIB2_RIB3

 1  6  8 10 d_URA1_RIB1_RIB3_P1
 6  8 10 11 d_RIB1_RIB3_P1_P2

[ exclusions ]
 1  2  3  4  5 
 2  3  4  5 
 3  4  5 
 4  5 
 9  6  7  8 


; This file was generated using the following command:
; /coarse/chris/python_packages/fast_forward/.venv/bin/ff_inter -f mapped.xtc -s mapped.tpr -i DUMP.itp -max-dihedral 5 -plots -itp-only -dists
; 

; Please cite the following papers:
; Kroon, P C; Grunewald, F; Barnoud, J; van Tilburg, M; Souza, P C; Wassenaar, T A; Marrink, S J;  elife 2024; 10.7554/elife.90627.2
; Brasnett, C; Grunewald, L; Wassenaar, T A; Marrink, S J; Grunewald, F;  2025; https://zenodo.org/badge/latestdoi/327071500

[ moleculetype ]
DUMP 1

[ atoms ]
 1 SN1   1 DUMP URA1  1  0.0 45.0
 2 TP1a  1 DUMP URA2  2  0.0 45.0
 3 TN5d  1 DUMP URA3  3  0.0  0.0
 4 TP1a  1 DUMP URA4  4  0.0 45.0
 5 TC5   1 DUMP URA5  5  0.0  0.0
 6 TC3   1 DUMP RIB1  6  0.0 54.0
 7 TP1   1 DUMP RIB2  7  0.0 54.0
 8 SN4ar 1 DUMP RIB3  8  0.0 54.0
 9 TC4   1 DUMP RIB4  9  0.0  0.0
10 D     1 DUMP P1   10 -2.0 72.0

[ bonds ]
#ifdef FLEXIBLE
 1  6 b_D_URA1_RIB1
 6  7 b_D_RIB1_RIB2
 6  8 b_D_RIB1_RIB3
 7  8 b_D_RIB2_RIB3
 8 10 b_RIB3_P1
#endif

[ constraints ]
 1  2 1 0.290
 1  4 1 0.374
 2  4 1 0.451

#ifndef FLEXIBLE
 1  6 c_D_URA1_RIB1
 6  7 c_D_RIB1_RIB2
 6  8 c_D_RIB1_RIB3
 7  8 c_D_RIB2_RIB3
 8 10 c_RIB3_P1
#endif

[ angles ]
 2  1  6 a_URA2_URA1_RIB1
 1  6  7 a_D_URA1_RIB1_RIB2
 1  6  8 a_D_URA1_RIB1_RIB3
 6  8 10 a_RIB1_RIB3_P1

[ virtual_sitesn ]
 3 2  2  4
 5 2  1  4
 9 1  6  7  8

[ dihedrals ]
 1  2  4  5 2 0.0 100.0

 2  1  6  8 d_URA2_URA1_RIB1_RIB3_1
 2  1  6  8 d_URA2_URA1_RIB1_RIB3_2
 2  1  6  8 d_URA2_URA1_RIB1_RIB3_3
 2  1  6  8 d_URA2_URA1_RIB1_RIB3_4
 2  1  6  8 d_URA2_URA1_RIB1_RIB3_5

 1  6  7  8 d_URA1_RIB1_RIB2_RIB3

 1  6  8 10 d_URA1_RIB1_RIB3_P1

[ exclusions ]
 1  2  3  4  5 
 2  3  4  5 
 3  4  5 
 4  5 
 9  6  7  8 


; This file was generated using the following command:
; /coarse/chris/python_packages/fast_forward/.venv/bin/ff_inter -f mapped.xtc -s mapped.tpr -i DURD.itp -max-dihedral 5 -plots -itp-only -dists
; 

; Please cite the following papers:
; Kroon, P C; Grunewald, F; Barnoud, J; van Tilburg, M; Souza, P C; Wassenaar, T A; Marrink, S J;  elife 2024; 10.7554/elife.90627.2
; Brasnett, C; Grunewald, L; Wassenaar, T A; Marrink, S J; Grunewald, F;  2025; https://zenodo.org/badge/latestdoi/327071500

[ moleculetype ]
DURD 1

[ atoms ]
 1 SN1   1 DURD URA1  1  0.0 45.0
 2 TP1a  1 DURD URA2  2  0.0 45.0
 3 TN5d  1 DURD URA3  3  0.0  0.0
 4 TP1a  1 DURD URA4  4  0.0 45.0
 5 TC5   1 DURD URA5  5  0.0  0.0
 6 TC3   1 DURD RIB1  6  0.0 54.0
 7 TP1   1 DURD RIB2  7  0.0 54.0
 8 SN4ar 1 DURD RIB3  8  0.0 54.0
 9 TC4   1 DURD RIB4  9  0.0  0.0

[ bonds ]
#ifdef FLEXIBLE
 1  6 b_D_URA1_RIB1
 6  7 b_D_RIB1_RIB2
 6  8 b_D_RIB1_RIB3
 7  8 b_D_RIB2_RIB3
#endif

[ constraints ]
 1  2 1 0.290
 1  4 1 0.374
 2  4 1 0.451

#ifndef FLEXIBLE
 1  6 c_D_URA1_RIB1
 6  7 c_D_RIB1_RIB2
 6  8 c_D_RIB1_RIB3
 7  8 c_D_RIB2_RIB3
#endif

[ angles ]
 2  1  6 a_URA2_URA1_RIB1
 1  6  7 a_D_URA1_RIB1_RIB2
 1  6  8 a_D_URA1_RIB1_RIB3

[ virtual_sitesn ]
 3 2  2  4
 5 2  1  4
 9 1  6  7  8

[ dihedrals ]
 1  2  4  5 2 0.0 100.0

 2  1  6  8 d_URA2_URA1_RIB1_RIB3_1
 2  1  6  8 d_URA2_URA1_RIB1_RIB3_2
 2  1  6  8 d_URA2_URA1_RIB1_RIB3_3
 2  1  6  8 d_URA2_URA1_RIB1_RIB3_4
 2  1  6  8 d_URA2_URA1_RIB1_RIB3_5

 1  6  7  8 d_URA1_RIB1_RIB2_RIB3


[ exclusions ]
 1  2  3  4  5 
 2  3  4  5 
 3  4  5 
 4  5 
 9  6  7  8 


; This file was generated using the following command:
; /coarse/chris/python_packages/fast_forward/.venv/bin/ff_inter -f mapped.xtc -s mapped.tpr -i DUTPH.itp -max-dihedral 5 -plots -itp-only -dists
; 

; Please cite the following papers:
; Kroon, P C; Grunewald, F; Barnoud, J; van Tilburg, M; Souza, P C; Wassenaar, T A; Marrink, S J;  elife 2024; 10.7554/elife.90627.2
; Brasnett, C; Grunewald, L; Wassenaar, T A; Marrink, S J; Grunewald, F;  2025; https://zenodo.org/badge/latestdoi/327071500

[ moleculetype ]
DUTPH 1

[ atoms ]
 1 SN1   1 DUTPH URA1  1  0.0 45.0
 2 TP1a  1 DUTPH URA2  2  0.0 45.0
 3 TN5d  1 DUTPH URA3  3  0.0  0.0
 4 TP1a  1 DUTPH URA4  4  0.0 45.0
 5 TC5   1 DUTPH URA5  5  0.0  0.0
 6 TC3   1 DUTPH RIB1  6  0.0 54.0
 7 TP1   1 DUTPH RIB2  7  0.0 54.0
 8 SN4ar 1 DUTPH RIB3  8  0.0 54.0
 9 TC4   1 DUTPH RIB4  9  0.0  0.0
10 Q5n   1 DUTPH P1   10 -1.0 72.0
11 Q5n   1 DUTPH P2   11 -1.0 72.0
12 Q5n   1 DUTPH P3   12 -1.0 72.0

[ bonds ]
#ifdef FLEXIBLE
 1  6 b_D_URA1_RIB1
 6  7 b_D_RIB1_RIB2
 6  8 b_D_RIB1_RIB3
 7  8 b_D_RIB2_RIB3
 8 10 b_RIB3_P1
10 11 b_H_P1_P2
11 12 b_H_P2_P3
#endif

[ constraints ]
 1  2 1 0.290
 1  4 1 0.374
 2  4 1 0.451

#ifndef FLEXIBLE
 1  6 c_D_URA1_RIB1
 6  7 c_D_RIB1_RIB2
 6  8 c_D_RIB1_RIB3
 7  8 c_D_RIB2_RIB3
 8 10 c_RIB3_P1
10 11 c_H_P1_P2
11 12 c_H_P2_P3
#endif

[ angles ]
 2  1  6 a_URA2_URA1_RIB1
 1  6  7 a_D_URA1_RIB1_RIB2
 1  6  8 a_D_URA1_RIB1_RIB3
 8 10 11 a_RIB3_P1_P2
 6  8 10 a_RIB1_RIB3_P1
10 11 12 a_P1_P2_P3

[ virtual_sitesn ]
 3 2  2  4
 5 2  1  4
 9 1  6  7  8

[ dihedrals ]
 1  2  4  5 2 0.0 100.0

 2  1  6  8 d_URA2_URA1_RIB1_RIB3_1
 2  1  6  8 d_URA2_URA1_RIB1_RIB3_2
 2  1  6  8 d_URA2_URA1_RIB1_RIB3_3
 2  1  6  8 d_URA2_URA1_RIB1_RIB3_4
 2  1  6  8 d_URA2_URA1_RIB1_RIB3_5

 1  6  7  8 d_URA1_RIB1_RIB2_RIB3

 1  6  8 10 d_URA1_RIB1_RIB3_P1
 6  8 10 11 d_RIB1_RIB3_P1_P2
 8 10 11 12 d_RIB3_P1_P2_P3

[ exclusions ]
 1  2  3  4  5 
 2  3  4  5 
 3  4  5 
 4  5 
 9  6  7  8 


; This file was generated using the following command:
; /coarse/chris/python_packages/fast_forward/.venv/bin/ff_inter -f mapped.xtc -s mapped.tpr -i DUTP.itp -max-dihedral 5 -plots -itp-only -dists
; 

; Please cite the following papers:
; Kroon, P C; Grunewald, F; Barnoud, J; van Tilburg, M; Souza, P C; Wassenaar, T A; Marrink, S J;  elife 2024; 10.7554/elife.90627.2
; Brasnett, C; Grunewald, L; Wassenaar, T A; Marrink, S J; Grunewald, F;  2025; https://zenodo.org/badge/latestdoi/327071500

[ moleculetype ]
DUTP 1

[ atoms ]
 1 SN1   1 DUTP URA1  1  0.0 45.0
 2 TP1a  1 DUTP URA2  2  0.0 45.0
 3 TN5d  1 DUTP URA3  3  0.0  0.0
 4 TP1a  1 DUTP URA4  4  0.0 45.0
 5 TC5   1 DUTP URA5  5  0.0  0.0
 6 TC3   1 DUTP RIB1  6  0.0 54.0
 7 TP1   1 DUTP RIB2  7  0.0 54.0
 8 SN4ar 1 DUTP RIB3  8  0.0 54.0
 9 TC4   1 DUTP RIB4  9  0.0  0.0
10 Q5n   1 DUTP P1   10 -1.0 72.0
11 Q5n   1 DUTP P2   11 -1.0 72.0
12 D     1 DUTP P3   12 -2.0 72.0

[ bonds ]
#ifdef FLEXIBLE
 1  6 b_D_URA1_RIB1
 6  7 b_D_RIB1_RIB2
 6  8 b_D_RIB1_RIB3
 7  8 b_D_RIB2_RIB3
 8 10 b_RIB3_P1
10 11 b_P1_P2
11 12 b_P2_P3
#endif

[ constraints ]
 1  2 1 0.290
 1  4 1 0.374
 2  4 1 0.451

#ifndef FLEXIBLE
 1  6 c_D_URA1_RIB1
 6  7 c_D_RIB1_RIB2
 6  8 c_D_RIB1_RIB3
 7  8 c_D_RIB2_RIB3
 8 10 c_RIB3_P1
10 11 c_P1_P2
11 12 c_P2_P3
#endif

[ angles ]
 2  1  6 a_URA2_URA1_RIB1
 1  6  7 a_D_URA1_RIB1_RIB2
 1  6  8 a_D_URA1_RIB1_RIB3
 8 10 11 a_RIB3_P1_P2
 6  8 10 a_RIB1_RIB3_P1
10 11 12 a_P1_P2_P3

[ virtual_sitesn ]
 3 2  2  4
 5 2  1  4
 9 1  6  7  8

[ dihedrals ]
 1  2  4  5 2 0.0 100.0

 2  1  6  8 d_URA2_URA1_RIB1_RIB3_1
 2  1  6  8 d_URA2_URA1_RIB1_RIB3_2
 2  1  6  8 d_URA2_URA1_RIB1_RIB3_3
 2  1  6  8 d_URA2_URA1_RIB1_RIB3_4
 2  1  6  8 d_URA2_URA1_RIB1_RIB3_5

 1  6  7  8 d_URA1_RIB1_RIB2_RIB3

 1  6  8 10 d_URA1_RIB1_RIB3_P1
 6  8 10 11 d_RIB1_RIB3_P1_P2
 8 10 11 12 d_RIB3_P1_P2_P3

[ exclusions ]
 1  2  3  4  5 
 2  3  4  5 
 3  4  5 
 4  5 
 9  6  7  8 


;
; Topology prepared automatically using PyCGTOOL
; James Graham <J.A.Graham@soton.ac.uk> 2016
; University of Southampton
; https://github.com/jag1g13/pycgtool
;

[ moleculetype ]
E4P     1

[ atoms ]
   1 TN5a    1 E4P  CO1     1    0.000
   2 TP1     1 E4P  ALC1    2    0.000
   3 SP1     1 E4P  ALC2    3    0.000
   4 D       1 E4P  P1      4   -2.000

[ bonds ]
   2    3    1      0.265  12799 ; ALC1_ALC2
   3    4    1      0.290  15000 ; ALC2_P1
   1    2    1      0.230  25000 ; CO1_ALC1

[ angles ]
   1    2    3    2     92    400 ; CO1_ALC1_ALC2
   2    3    4    2     97    100 ; ALC1_ALC2_P1

[ dihedrals ]
   1    2    3    4    1     35      10    1 ; CO1_ALC1_ALC2_P1

[ exclusions ]
1 2 3
2 3 4
;
; Topology prepared automatically using PyCGTOOL
; James Graham <J.A.Graham@soton.ac.uk> 2016
; University of Southampton
; https://github.com/jag1g13/pycgtool
;

[ moleculetype ]
F6P     1

[ atoms ]
   1 SP4r     1 F6P  FUC1    1    0.000   54
   2 SP4r     1 F6P  FUC2    2    0.000   54
   3 SN4ar    1 F6P  FUC3    3    0.000   54
   4 D        1 F6P  P1      4   -2.000
   5 TC4      1 F6P  FUC4    5    0.000   0

[ bonds ]
   1    2    1      0.380   7540 ; FUC1_FUC2
   1    3    1      0.443   9911 ; FUC1_FUC3
   2    3    1      0.339  12739 ; FUC2_FUC3

#ifdef FLEXIBLE
   3    4    1      0.330  10000 ; FUC3_P1
#endif

[ angles ]
   1    3    4    2    165    150 ; FUC1_FUC3_P1
   2    3    4    2    105     75 ; FUC2_FUC3_P1

[ constraints ]
#ifndef FLEXIBLE
   3    4    1      0.330 ; FUC3_P1
#endif

[ virtual_sitesn ]
5 1 1 2 3

[ exclusions ]
5 1 2 3 4
; This file was generated using the following command:
; /martini/chelsea/Projects/Metabolites/bin/ff_assessment_v/bin/ff_inter -f mapped.xtc -s mapped.tpr -i FAD.itp -dists
; 

; Please cite the following papers:
; Kroon, P C; Grunewald, F; Barnoud, J; van Tilburg, M; Souza, P C; Wassenaar, T A; Marrink, S J;  elife 2024; 10.7554/elife.90627.2
; Brasnett, C; Grunewald, L; Wassenaar, T A; Marrink, S J; Grunewald, F;  2025; https://zenodo.org/badge/latestdoi/327071500

[ moleculetype ]
FADH 1

[ atoms ]
 1 SN1   1 FADH ADE1  1  0.0 45.0
 2 TN3a  1 FADH ADE2  2  0.0 45.0
 3 TN5a  1 FADH ADE3  3  0.0  0.0
 4 TP1d  1 FADH ADE4  4  0.0 45.0
 5 TN3a  1 FADH ADE5  5  0.0 45.0
 6 TC6   1 FADH ADE6  6  0.0  0.0
 7 SN6   1 FADH RIB1  7  0.0 54.0
 8 TP1   1 FADH RIB2  8  0.0 54.0
 9 SN4ar 1 FADH RIB3  9  0.0 54.0
10 TC4   1 FADH RIB4 10  0.0  0.0
11 Q5n   1 FADH P1   11 -1.0 72.0
12 Q5n   1 FADH P2   12 -1.0 72.0
13 SP1   1 FADH ALC3 13  0.0     
14 TP1   1 FADH ALC2 14  0.0     
15 SP1   1 FADH ALC1 15  0.0     
16 TC4   1 FADH FLV1 16  0.0     
17 TC4   1 FADH FLV2 17  0.0     
18 TC5e  1 FADH FLV3 18  0.0  0.0
19 TN6a  1 FADH FLV4 19  0.0     
20 TN3a  1 FADH FLV5 20  0.0     
21 TC5e  1 FADH FLV6 21  0.0  0.0
22 TP3   1 FADH FLV7 22  0.0     
23 TP3   1 FADH FLV8 23  0.0     
24 TC5e  1 FADH FLV9 24  0.0  0.0

[ bonds ]
 1  7 b_ADE1_RIB1      ; ADE1_RIB1
 7  8 b_RIB1_RIB2      ; RIB1_RIB2
20 15 1 0.245 7500 ; FLV5_ALC1
12 13 1 0.346 7250 ; ALC3_P2
15 14 1 0.247 25000 ; ALC1_ALC2
14 13 1 0.257 25000 ; ALC2_ALC3

16 17 1 0.317 25000 ; FLV1_FLV2
16 19 1 0.415 25000 ; FLV1_FLV4
17 20 1 0.425 25000 ; FLV2_FLV5
19 22 1 0.294 25000 ; FLV4_FLV7
20 23 1 0.341 25000 ; FLV5_FLV8
22 23 1 0.273 25000 ; FLV7_FLV8
16 20 1 0.488 25000 ; FLV1_FLV5
19 23 1 0.401 25000 ; FLV4_FLV8
20 22 1 0.381 25000 ; FLV5_FLV7

#ifdef FLEXIBLE
 7  9 b_RIB1_RIB3      ; RIB1_RIB3
 8  9 b_RIB2_RIB3      ; RIB2_RIB3
 9 11 b_RIB3_P1        ; RIB3_P1
11 12 b_P1_P2          ; P1_P2
#endif

[ constraints ]
 1  2 1 0.268 ; ADE1_ADE2
 1  5 1 0.287 ; ADE1_ADE5
 4  5 1 0.316 ; ADE4_ADE5
 2  5 1 0.353 ; ADE2_ADE5
 2  4 1 0.417 ; ADE2_ADE4
#ifndef FLEXIBLE
 7  9 c_RIB1_RIB3 ; RIB1_RIB3
 8  9 c_RIB2_RIB3 ; RIB2_RIB3
 9 11 c_RIB3_P1   ; RIB3_P1
11 12 c_P1_P2     ; P1_P2
#endif

[ angles ]
 2  1  7  a_ADE2_ADE1_RIB1 ; ADE2_ADE1_RIB1
 1  7  8  a_ADE1_RIB1_RIB2 ; ADE1_RIB1_RIB2
 1  7  9  a_ADE1_RIB1_RIB3 ; ADE1_RIB1_RIB3 
 7  9 11  a_RIB1_RIB3_P1   ; RIB1_RIB3_P1
 9 11 12  a_RIB3_P1_P2     ; RIB3_P1_P2
11 12 13 10 110 50 ; P1_P2_ALC3
20 15 14 10 150 150 ; FLV5_ALC1_ALC2
15 14 13 10  90 250 ; ALC1_ALC2_ALC3
14 13 12 10 100 50 ; ALC2_ALC3_P2
16 19 22 1  160 400 ; FLV1_FLV4_FLV7
17 20 23 1  170 200 ; FLV2_FLV5_FLV8

[ virtual_sitesn ]
 6 2  2  5
10 1  7  8  9
21 1 19 20
24 1 19 23

[ dihedrals ]
 1  7  8  9 d_ADE1_RIB1_RIB2_RIB3   ; ADE1_RIB1_RIB2_RIB3
 1  2  5  4 d_ADE1_ADE2_ADE5_ADE4   ; ADE1_ADE2_ADE5_ADE4
 2  1  7  9 d_ADE2_ADE1_RIB1_RIB3_1 ; ADE2_ADE1_RIB1_RIB3
 2  1  7  9 d_ADE2_ADE1_RIB1_RIB3_2 ; ADE2_ADE1_RIB1_RIB3
 2  1  7  9 d_ADE2_ADE1_RIB1_RIB3_3 ; ADE2_ADE1_RIB1_RIB3
 2  1  7  9 d_ADE2_ADE1_RIB1_RIB3_4 ; ADE2_ADE1_RIB1_RIB3
 2  1  7  9 d_ADE2_ADE1_RIB1_RIB3_5 ; ADE2_ADE1_RIB1_RIB3
 1  7  9 11 d_ADE1_RIB1_RIB3_P1     ; ADE1_RIB1_RIB3_P1 
 7  9 11 12 d_RIB1_RIB3_P1_P2       ; RIB1_RIB3_P1_P2 

16 17 19 20 2 180 220 ; FLV1_FLV2_FLV4_FLV5
19 20 22 23 2 -175 75 ; FLV4_FLV5_FLV7_FLV8
;15 14 13 12  9 130 10  2 ; ALC1_ALC2_ALC3_P2
 9 11 12 13  9 175 10  1 ; RIB3_P1_P2_ALC3

[ virtual_sites3 ]
 3  5  2  4 2 0.52 0.373
18 16 17 19 2 0.50 0.230

[ exclusions ]
 1 2 3 4 5 6 7 8 9
 2 3 4 5 6 7 8 9
 3 4 5 6 
 4 5 6 
 5 6 
10 7 8 9
11 12 13 14 15
12 13 14 15
13 14 15
14 15
16 17 18 19 20 21 22 23 24
17 18 19 20 21 22 23 24
18 19 20 21 22 23 24
19 20 21 22 23 24
20 21 22 23 15 24
21 22 23 24
22 23 24
23 24

;
; Topology prepared automatically using PyCGTOOL
; James Graham <J.A.Graham@soton.ac.uk> 2016
; University of Southampton
; https://github.com/jag1g13/pycgtool
;

[ moleculetype ]
FBP     1

[ atoms ]
   1 D        1 FBP  P1      1   -2.000
   2 SN6      1 FBP  FUC1    2    0.000   54.0
   3 SP4r     1 FBP  FUC2    3    0.000   54.0
   4 SN4ar    1 FBP  FUC3    4    0.000   54.0
   5 D        1 FBP  P2      5   -2.000   
   6 TC4      1 FBP  FUC4    6    0.000   0

[ bonds ]
   1    2    1      0.300  10000 ; P1_FUC1
   2    3    1      0.348  10495 ; FUC1_FUC2
   2    4    1      0.408  15000 ; FUC1_FUC3

#ifdef FLEXIBLE
   3    4    1      0.328  10000 ; FUC2_FUC3
   4    5    1      0.330  10000 ; FUC3_P2
#endif

[ angles ]
   1    2    3    2    175   1500.0 ; P1_FUC1_FUC2
   1    2    4    2    130    125.0 ; P1_FUC1_FUC3

[ constraints ]
#ifndef FLEXIBLE
   3    4    1      0.328 ; FUC2_FUC3  ;increased by 15%
   4    5    1      0.330 ; FUC3_P2
#endif

[ virtual_sitesn ]
6 1 2 3 4

[ exclusions ]
2 3 4 6
3 4 6
4 6
;
; Topology prepared automatically using PyCGTOOL
; James Graham <J.A.Graham@soton.ac.uk> 2016
; University of Southampton
; https://github.com/jag1g13/pycgtool
;

[ moleculetype ]
FMNH    1

[ atoms ]
   1 SC4     1 FMNH FLV1    1    0.000
   2 SC4     1 FMNH FLV2    2    0.000
   3 TC5e    1 FMNH FLV3    3    0.000  0
   4 SN6a    1 FMNH FLV4    4    0.000
   5 SN3a    1 FMNH FLV5    5    0.000
   6 TC5e    1 FMNH FLV6    6    0.000  0
   7 SQ3     1 FMNH FLV7    7   -1.000
   8 SP3     1 FMNH FLV8    8    0.000
   9 TC5e    1 FMNH FLV9    9    0.000  0
  10 SP1     1 FMNH ALC1   10    0.000
  11 TP1     1 FMNH ALC2   11    0.000
  12 SP1     1 FMNH ALC3   12    0.000
  13 D       1 FMNH P1     13   -2.000

[ bonds ]
   5   10    1      0.235  15000 ; FLV5_ALC1
  10   11    1      0.254  13006 ; ALC1_ALC2
  11   12    1      0.249  11570 ; ALC2_ALC3
  12   13    1      0.356   7500 ; ALC3_P1
; changed from constraints
   1    2    1      0.317  50000 ; FLV1_FLV2
   1    4    1      0.415  50000 ; FLV1_FLV4
   2    5    1      0.425  50000 ; FLV2_FLV5
   4    7    1      0.293  50000 ; FLV4_FLV7
   5    8    1      0.338  50000 ; FLV5_FLV8
   7    8    1      0.272  50000 ; FLV7_FLV8
   1    5    1      0.488  50000 ; FLV1_FLV5
   4    8    1      0.398  50000 ; FLV4_FLV8

[ angles ]
   5   10   11    2    141     79 ; FLV5_ALC1_ALC2
  10   11   12    2     97    500 ; ALC1_ALC2_ALC3
  11   12   13    2     80    100 ; ALC2_ALC3_P1
   1    4    7    2    157   6326 ; FLV1_FLV4_FLV7
   2    5    8    2    168   6592 ; FLV2_FLV5_FLV8

[ dihedrals ]
   1    2    4    5    1     -0.441    228    1 ; FLV1_FLV2_FLV4_FLV5
   4    5    7    8    1     -0.665     71    1 ; FLV4_FLV5_FLV7_FLV8
  10   11   12   13    1      20        50    1 ; ALC1_ALC2_ALC3_P1

[ virtual_sitesn ]
6 1 4 5
9 1 4 8

[ virtual_sites3 ]
3 1 2 4   2   0.500    0.230

[ exclusions ]
1 2 3 4 5 6 7 8 9
2 3 4 5 6 7 8 9
3 4 5 6 7 8 9
4 5 6 7 8 9
5 6 7 8 9 
6 7 8 9
7 8 9
8 9
10 11 12 
11 12 13

;
; Topology prepared automatically using PyCGTOOL
; James Graham <J.A.Graham@soton.ac.uk> 2016
; University of Southampton
; https://github.com/jag1g13/pycgtool
;

[ moleculetype ]
FMN     1

[ atoms ]
   1 TC4     1 FMN  FLV1    1    0.000
   2 TC4     1 FMN  FLV2    2    0.000
   3 TC5e    1 FMN  FLV3    3    0.000  0
   4 TN6a    1 FMN  FLV4    4    0.000
   5 TN3a    1 FMN  FLV5    5    0.000
   6 TC5e    1 FMN  FLV6    6    0.000  0
   7 TP3     1 FMN  FLV7    7    0.000
   8 TP3     1 FMN  FLV8    8    0.000
   9 TC5e    1 FMN  FLV9    9    0.000  0
  10 SP1     1 FMN  ALC1   10    0.000
  11 TP1     1 FMN  ALC2   11    0.000
  12 SP1     1 FMN  ALC3   12    0.000
  13 D       1 FMN  P1     13   -2.000

[ bonds ]
   5   10    1      0.235  15000 ; FLV5_ALC1
  10   11    1      0.254  13006 ; ALC1_ALC2
  11   12    1      0.249  11570 ; ALC2_ALC3
  12   13    1      0.334   5000 ; ALC3_P1
; changed from constraints
   1    2    1      0.317  50000 ; FLV1_FLV2
   1    4    1      0.415  50000 ; FLV1_FLV4
   2    5    1      0.425  50000 ; FLV2_FLV5
   4    7    1      0.330  50000 ; FLV4_FLV7
   5    8    1      0.344  50000 ; FLV5_FLV8
   7    8    1      0.258  50000 ; FLV7_FLV8
   1    5    1      0.488  50000 ; FLV1_FLV5
   4    8    1      0.406  50000 ; FLV4_FLV8

[ angles ]
   5   10   11    2    141     79 ; FLV5_ALC1_ALC2
  10   11   12    2     98    750 ; ALC1_ALC2_ALC3
  11   12   13    2     90     50 ; ALC2_ALC3_P1
   1    4    7    2    160   7500 ; FLV1_FLV4_FLV7
   2    5    8    2    168  10000 ; FLV2_FLV5_FLV8

[ dihedrals ]
   1    2    4    5    1     -0.441    228    1 ; FLV1_FLV2_FLV4_FLV5
   4    5    7    8    1     -0.665     71    1 ; FLV4_FLV5_FLV7_FLV8
  10   11   12   13    1      20        25    1 ; ALC1_ALC2_ALC3_P1

[ virtual_sitesn ]
6 1 4 5
9 1 4 8

[ virtual_sites3 ]
3 1 2 4   2   0.500    0.230

[ exclusions ]
1 2 3 4 5 6 7 8 9
2 3 4 5 6 7 8 9
3 4 5 6 7 8 9
4 5 6 7 8 9
5 6 7 8 9 
6 7 8 9
7 8 9
8 9
10 11 12 
11 12 13
; This file was generated using the following command:
; /coarse/chris/python_packages/fast_forward/.venv/bin/ff_inter -f ../mapped.xtc -s ../mapped.tpr -i FUM.itp -plots -dists
; 

; Please cite the following papers:
; Brasnett, C; Grunewald, L; Wassenaar, T A; Marrink, S J; Grunewald, F;  2025; https://zenodo.org/badge/latestdoi/327071500
; Kroon, P C; Grunewald, F; Barnoud, J; van Tilburg, M; Souza, P C; Wassenaar, T A; Marrink, S J;  elife 2024; 10.7554/elife.90627.2

[ moleculetype ]
FUM 1

[ atoms ]
1 SQ5n 1 FUM CAC1 1 -1.0 54.0
2 TC4  1 FUM C1   2  0.0 36.0
3 SQ5n 1 FUM CAC2 3 -1.0 54.0

[ bonds ]
#ifdef FLEXIBLE
1 2 1 0.236 10000 ; CAC1_C1
2 3 1 0.236 10000 ; C1_CAC2
#endif

[ constraints ]
#ifndef FLEXIBLE
1 2 1 0.236 ; CAC1_C1
2 3 1 0.236 ; C1_CAC2
#endif

[ angles ]
1 2 3 1 186.41 150 ; CAC1_C1_CAC2


;
; Topology prepared automatically using PyCGTOOL
; James Graham <J.A.Graham@soton.ac.uk> 2016
; University of Southampton
; https://github.com/jag1g13/pycgtool
;

[ moleculetype ]
G1P     1

[ atoms ]
   1 SN6     1 G1P  GLU1    1    0.000    54.0
   2 SP4r    1 G1P  GLU2    2    0.000    54.0
   3 SP1r    1 G1P  GLU3    3    0.000    54.0
   4 D       1 G1P  P1      4   -2.000
   5 TC4     1 G1P  GLU4    5    0.000    0.0

[ bonds ]
   2    3    1      0.385  13212 ; GLU2_GLU3
   1    3    1      0.484  17500 ; GLU1_GLU3
   1    2    1      0.351  20000 ; GLU1_GLU2

#ifdef FLEXIBLE
   1    4    1      0.289  10000 ; GLU3_P1
#endif

[ angles ]
   2    1    4    2    110    466 ; GLU2_GLU1_P1
   3    1    4    2     90    511 ; GLU3_GLU1_P1

[ constraints ]
#ifndef FLEXIBLE
   1    4    1      0.289 ; GLU3_P1
#endif

[ virtual_sitesn ]
5 1 1 2 3

[ exclusions ]
5 1 2 3 4
; This file was generated using the following command:
; ff_inter -f mapped.xtc -s mapped.gro -i G3H.itp -dists -plots
;

; Please cite the following papers:
; Kroon, P C; Grunewald, F; Barnoud, J; van Tilburg, M; Souza, P C; Wassenaar, T A; Marrink, S J;  elife 2024; 10.7554/elife.90627.2
; Brasnett, C; Grunewald, L; Wassenaar, T A; Marrink, S J; Grunewald, F;  2025; https://zenodo.org/badge/latestdoi/327071500

[ moleculetype ]
G3H 1

[ atoms ]
1 SP1  1 G3H ALC1 1  0.0 54.0
2 D    1 G3H P1   2 -2.0 72.0
3 TN5a 1 G3H CO1  3  0.0 36.0

[ bonds ]
2 3 1 0.46 7316.85 ; ALC1_CO1

#ifdef FLEXIBLE
1 2 1 0.361 10000 ; ALC1_P1
#endif

[ constraints ]
#ifndef FLEXIBLE
1 2 1 0.361 ; ALC1_P1
#endif

[ angles ]
1 2 3 10 33.000 350 ; ALC1_P1_CO1

[ exclusions ]
1 2 3
2 1 3
3 1 2

; This file was generated using the following command:
; ff_inter -f mapped.xtc -s mapped.gro -i G3P.itp -dists -plots
;

; Please cite the following papers:
; Brasnett, C; Grunewald, L; Wassenaar, T A; Marrink, S J; Grunewald, F;  2025; https://zenodo.org/badge/latestdoi/327071500
; Kroon, P C; Grunewald, F; Barnoud, J; van Tilburg, M; Souza, P C; Wassenaar, T A; Marrink, S J;  elife 2024; 10.7554/elife.90627.2

[ moleculetype ]
G3P 1

[ atoms ]
1 D    1 G3P P1   1 -2.0 72.0
2 SQ5n 1 G3P ALC1 2  0.0 54.0
3 SP2  1 G3P ALC2 3  0.0 54.0

[ bonds ]
1 2 1 0.345 2500.000 ; P1_ALC1

#ifdef FLEXIBLE
2 3 1 0.254 10000 ; ALC1_ALC2
#endif

[ constraints ]
#ifndef FLEXIBLE
2 3 1 0.254 ; ALC1_ALC2
#endif

[ angles ]
1 2 3 10 100.000 45.802 ; P1_ALC1_ALC2

[ exclusions ]
1 2 3
2 1 3
3 1 2

;
; Topology prepared automatically using PyCGTOOL
; James Graham <J.A.Graham@soton.ac.uk> 2016
; University of Southampton
; https://github.com/jag1g13/pycgtool
;

[ moleculetype ]
G6P     1

[ atoms ]
   1 SP4r     1 G6P  GLU1    1    0.000   54
   2 SP4r     1 G6P  GLU2    2    0.000   54
   3 SN4ar    1 G6P  GLU3    3    0.000   54
   4 D        1 G6P  P1      4   -2.000
   5 TC4      1 G6P  GLU4    5    0.000   0

[ bonds ]
   1    2    1      0.339  10000 ; GLU1_GLU2
   1    3    1      0.374  10000 ; GLU1_GLU3
   2    3    1      0.322  10000 ; GLU2_GLU3
   3    4    1      0.330  15000 ; GLU3_P1

[ angles ]
   1    3    4    2    143.5    173 ; GLU1_GLU3_P1
   2    3    4    2     90.0     40 ; GLU2_GLU3_P1

[ virtual_sitesn ]
5 1 1 2 3

[ exclusions ]
5 1 2 3 4
; This file was generated using the following command:
; /coarse/chris/python_packages/fast_forward/.venv/bin/ff_inter -f mapped.xtc -s mapped.tpr -i GABA.itp -plots -dists
; 

; Please cite the following papers:
; Brasnett, C; Grunewald, L; Wassenaar, T A; Marrink, S J; Grunewald, F;  2025; https://zenodo.org/badge/latestdoi/327071500
; Kroon, P C; Grunewald, F; Barnoud, J; van Tilburg, M; Souza, P C; Wassenaar, T A; Marrink, S J;  elife 2024; 10.7554/elife.90627.2

[ moleculetype ]
GABA 1

[ atoms ]
1 SQ5n 1 GABA CAC1 1 -1.0 54.0
2 TC1  1 GABA C1   2  0.0 36.0
3 TQ4p 1 GABA AMC1 3  1.0 36.0

[ bonds ]
1 2 1 0.247 10000 ; CAC1_C1
2 3 1 0.251 8931.516 ; C1_AMC1

[ angles ]
1 2 3 10 106.5 3.788 ; CAC1_C1_AMC1


; This file was generated using the following command:
; /coarse/chris/python_packages/fast_forward/.venv/bin/ff_inter -f mapped.xtc -s mapped.tpr -i GDPH.itp -max-dihedral 5 -plots -itp-only -dists
; 

; Please cite the following papers:
; Brasnett, C; Grunewald, L; Wassenaar, T A; Marrink, S J; Grunewald, F;  2025; https://zenodo.org/badge/latestdoi/327071500
; Kroon, P C; Grunewald, F; Barnoud, J; van Tilburg, M; Souza, P C; Wassenaar, T A; Marrink, S J;  elife 2024; 10.7554/elife.90627.2

[ moleculetype ]
GDPH 1

[ atoms ]
 1 SN1   1 GDPH GUA1  1 0.0 45.0
 2 TP1d  1 GDPH GUA2  2 0.0 45.0
 3 TP1d  1 GDPH GUA3  3 0.0  0.0
 4 TP1a  1 GDPH GUA4  4 0.0 45.0
 5 TN5a  1 GDPH GUA5  5 0.0  0.0
 6 TN3a  1 GDPH GUA6  6 0.0  0.0
 7 SN6   1 GDPH RIB1  7 0.0 54.0
 8 TP1   1 GDPH RIB2  8 0.0 54.0
 9 SN4ar 1 GDPH RIB3  9 0.0 54.0
10 TC4   1 GDPH RIB4 10 0.0  0.0
11 Q5n   1 GDPH P1   11 -1.0 72.0
12 Q5n   1 GDPH P2   12 -1.0 72.0

[ bonds ]
 1  7 b_GUA1_RIB1
 7  8 b_RIB1_RIB2

#ifdef FLEXIBLE
 7  9 b_RIB1_RIB3
 8  9 b_RIB2_RIB3
 9 11 b_RIB3_P1
11 12 b_H_P1_P2
#endif

[ constraints ]
 1  2 1 0.566
 1  4 1 0.483
 2  4 1 0.504

#ifndef FLEXIBLE
 7  9 c_RIB1_RIB3
 8  9 c_RIB2_RIB3
 9 11 c_RIB3_P1
11 12 c_H_P1_P2
#endif

[ angles ]
 4  1  7 a_GUA4_GUA1_RIB1
 1  7  8 a_GUA1_RIB1_RIB2
 1  7  9 a_GUA1_RIB1_RIB3
 7  9 11 a_RIB1_RIB3_P1
 9 11 12 a_RIB3_P1_P2

[ virtual_sitesn ]
 3 2  2  4
 5 2  1  2
 6 2  1  1  2  4  4
10 1  7  8  9

[ dihedrals ]
 1  7  8  9 d_GUA1_RIB1_RIB2_RIB3
 4  1  7  9 d_GUA4_GUA1_RIB1_RIB3_1
 4  1  7  9 d_GUA4_GUA1_RIB1_RIB3_2
 4  1  7  9 d_GUA4_GUA1_RIB1_RIB3_3
 4  1  7  9 d_GUA4_GUA1_RIB1_RIB3_4
 4  1  7  9 d_GUA4_GUA1_RIB1_RIB3_5
 1  7  9 11 d_GUA1_RIB1_RIB3_P1
 7  9 11 12 d_RIB1_RIB3_P1_P2

[ exclusions ]
 1  2  3  4  5  6 
 2  3  4  5  6 
 3  4  5  6 
 4  5  6 
 5  6 
10  7  8  9
 4 1 7 8 9
 1 7 8 9

; This file was generated using the following command:
; /coarse/chris/python_packages/fast_forward/.venv/bin/ff_inter -f mapped.xtc -s mapped.tpr -i GDP.itp -max-dihedral 5 -plots -itp-only -dists
; 

; Please cite the following papers:
; Brasnett, C; Grunewald, L; Wassenaar, T A; Marrink, S J; Grunewald, F;  2025; https://zenodo.org/badge/latestdoi/327071500
; Kroon, P C; Grunewald, F; Barnoud, J; van Tilburg, M; Souza, P C; Wassenaar, T A; Marrink, S J;  elife 2024; 10.7554/elife.90627.2

[ moleculetype ]
GDP 1

[ atoms ]
 1 SN1   1 GDP GUA1  1 0.0 45.0
 2 TP1d  1 GDP GUA2  2 0.0 45.0
 3 TP1d  1 GDP GUA3  3 0.0  0.0
 4 TP1a  1 GDP GUA4  4 0.0 45.0
 5 TN5a  1 GDP GUA5  5 0.0  0.0
 6 TN3a  1 GDP GUA6  6 0.0  0.0
 7 SN6   1 GDP RIB1  7 0.0 54.0
 8 TP1   1 GDP RIB2  8 0.0 54.0
 9 SN4ar 1 GDP RIB3  9 0.0 54.0
10 TC4   1 GDP RIB4 10 0.0  0.0
11 Q5n   1 GDP P1   11 -1.0 72.0
12 D     1 GDP P2   12 -2.0 72.0

[ bonds ]
 1  7 b_GUA1_RIB1
 7  8 b_RIB1_RIB2

#ifdef FLEXIBLE
 7  9 b_RIB1_RIB3
 8  9 b_RIB2_RIB3
 9 11 b_RIB3_P1
11 12 b_P1_P2
#endif

[ constraints ]
 1  2 1 0.566
 1  4 1 0.483
 2  4 1 0.504

#ifndef FLEXIBLE
 7  9 c_RIB1_RIB3
 8  9 c_RIB2_RIB3
 9 11 c_RIB3_P1
11 12 c_P1_P2
#endif

[ angles ]
 4  1  7 a_GUA4_GUA1_RIB1
 1  7  8 a_GUA1_RIB1_RIB2
 1  7  9 a_GUA1_RIB1_RIB3
 7  9 11 a_RIB1_RIB3_P1
 9 11 12 a_RIB3_P1_P2

[ virtual_sitesn ]
 3 2  2  4
 5 2  1  2
 6 2  1  1  2  4  4
10 1  7  8  9

[ dihedrals ]
 1  7  8  9 d_GUA1_RIB1_RIB2_RIB3
 4  1  7  9 d_GUA4_GUA1_RIB1_RIB3_1
 4  1  7  9 d_GUA4_GUA1_RIB1_RIB3_2
 4  1  7  9 d_GUA4_GUA1_RIB1_RIB3_3
 4  1  7  9 d_GUA4_GUA1_RIB1_RIB3_4
 4  1  7  9 d_GUA4_GUA1_RIB1_RIB3_5
 1  7  9 11 d_GUA1_RIB1_RIB3_P1
 7  9 11 12 d_RIB1_RIB3_P1_P2

[ exclusions ]
 1  2  3  4  5  6 
 2  3  4  5  6 
 3  4  5  6 
 4  5  6 
 5  6 
10  7  8  9
 4 1 7 8 9
 1 7 8 9

;
; Topology prepared automatically using PyCGTOOL
; James Graham <J.A.Graham@soton.ac.uk> 2016
; University of Southampton
; https://github.com/jag1g13/pycgtool
;

[ moleculetype ]
GL2P    1

[ atoms ]
   1 SQ5n    1 GL2P CAC1    1   -1.000
   2 SP1     1 GL2P ALC1    2    0.000
   3 D       1 GL2P P1      3   -2.000

[ bonds ]
   2    3    1      0.302   50000 ; ALC1_P1
   1    2    1      0.278   50000 ; CAC1_ALC1

[ angles ]
   1    2    3    2     92    500 ; CAC1_ALC1_P1

[ exclusions ]
1 2 3
2 3
;
; Topology prepared automatically using PyCGTOOL
; James Graham <J.A.Graham@soton.ac.uk> 2016
; University of Southampton
; https://github.com/jag1g13/pycgtool
;

[ moleculetype ]
GL6P    1

[ atoms ]
   1 TP1      1 GL6P GLU1    1    0.000   36
   2 TQ4p     1 GL6P GLU2    2    1.000   36
   3 SP4r     1 GL6P GLU3    3    0.000   54
   4 SN4ar    1 GL6P GLU4    4    0.000   54
   5 D        1 GL6P P1      5   -2.000   
   6 TC4      1 GL6P GLU5    6    0.000   0

[ bonds ]
   1    2    1      0.280  15000 ; GLU1_GLU2
   1    4    1      0.335  10000 ; GLU1_GLU4
   2    3    1      0.341  15000 ; GLU2_GLU3
   3    4    1      0.305  15000 ; GLU3_GLU4

#ifdef FLEXIBLE
   4    5    1      0.330  10000 ; GLU4_P1
#endif

[ angles ]
   1    2    3    2     83    949 ; GLU1_GLU2_GLU3
   1    4    3    2     79   1735 ; GLU1_GLU4_GLU3
   1    4    5    2    140    104 ; GLU1_GLU4_P1
   2    3    4    2     95    731 ; GLU2_GLU3_GLU4
   2    1    4    2    102    729 ; GLU2_GLU1_GLU4
   3    4    5    2     90     37 ; GLU3_GLU4_P1

[ dihedrals ]
   2    1    4    5    1    -92     1.35    1 ; GLU2_GLU1_GLU4_P1
   2    3    4    5    1     15     13.5    1 ; GLU2_GLU3_GLU4_P1
   1    2    3    4    1    178     104     1 ; GLU1_GLU2_GLU3_GLU4

[ constraints ]
#ifndef FLEXIBLE
   4    5    1      0.330 ; GLU4_P1
#endif

[ virtual_sitesn ]
6 1 1 2 3 4

[ exclusions ]
6 1 2 3 4 5
; This file was generated using the following command:
; ff_inter -f mapped.xtc -s mapped.gro -i GLR.itp -dists -plots
;

; Please cite the following papers:
; Brasnett, C; Grunewald, L; Wassenaar, T A; Marrink, S J; Grunewald, F;  2025; https://zenodo.org/badge/latestdoi/327071500
; Kroon, P C; Grunewald, F; Barnoud, J; van Tilburg, M; Souza, P C; Wassenaar, T A; Marrink, S J;  elife 2024; 10.7554/elife.90627.2

[ moleculetype ]
GLR 1

[ atoms ]
1 TP1 1 GLR ALC1 1 0.0 36.0
2 TP1 1 GLR ALC2 2 0.0 36.0
3 TP1 1 GLR ALC3 3 0.0 36.0

[ bonds ]
1 2 1 0.252 6144.23 ; ALC1_ALC2
2 3 1 0.252 6210.618 ; ALC2_ALC3

[ angles ]
1 2 3 10 79.811 51.763 ; ALC1_ALC2_ALC3

[ exclusions ]
1 2 3
2 1 3
3 1 2

; This file was generated using the following command:
; /coarse/chris/python_packages/fast_forward/.venv/bin/ff_inter -f mapped.xtc -s mapped.tpr -i GMP.itp -max-dihedral 5 -plots -itp-only -dists
; 

; Please cite the following papers:
; Brasnett, C; Grunewald, L; Wassenaar, T A; Marrink, S J; Grunewald, F;  2025; https://zenodo.org/badge/latestdoi/327071500
; Kroon, P C; Grunewald, F; Barnoud, J; van Tilburg, M; Souza, P C; Wassenaar, T A; Marrink, S J;  elife 2024; 10.7554/elife.90627.2

[ moleculetype ]
GMP 1

[ atoms ]
 1 SN1   1 GMP GUA1  1 0.0 45.0
 2 TP1d  1 GMP GUA2  2 0.0 45.0
 3 TP1d  1 GMP GUA3  3 0.0  0.0
 4 TP1a  1 GMP GUA4  4 0.0 45.0
 5 TN5a  1 GMP GUA5  5 0.0  0.0
 6 TN3a  1 GMP GUA6  6 0.0  0.0
 7 SN6   1 GMP RIB1  7 0.0 54.0
 8 TP1   1 GMP RIB2  8 0.0 54.0
 9 SN4ar 1 GMP RIB3  9 0.0 54.0
10 TC4   1 GMP RIB4 10 0.0  0.0
11 D     1 GMP P1   11 -2.0 72.0

[ bonds ]
 1  7 b_GUA1_RIB1
 7  8 b_RIB1_RIB2

#ifdef FLEXIBLE
 7  9 b_RIB1_RIB3
 8  9 b_RIB2_RIB3
 9 11 b_RIB3_P1
#endif

[ constraints ]
 1  2 1 0.566
 1  4 1 0.483
 2  4 1 0.504

#ifndef FLEXIBLE
 7  9 c_RIB1_RIB3
 8  9 c_RIB2_RIB3
 9 11 c_RIB3_P1
#endif

[ angles ]
 4  1  7 a_GUA4_GUA1_RIB1
 1  7  8 a_GUA1_RIB1_RIB2
 1  7  9 a_GUA1_RIB1_RIB3
 7  9 11 a_RIB1_RIB3_P1

[ virtual_sitesn ]
 3 2  2  4
 5 2  1  2
 6 2  1  1  2  4  4
10 1  7  8  9

[ dihedrals ]
 1  7  8  9 d_GUA1_RIB1_RIB2_RIB3
 4  1  7  9 d_GUA4_GUA1_RIB1_RIB3_1
 4  1  7  9 d_GUA4_GUA1_RIB1_RIB3_2
 4  1  7  9 d_GUA4_GUA1_RIB1_RIB3_3
 4  1  7  9 d_GUA4_GUA1_RIB1_RIB3_4
 4  1  7  9 d_GUA4_GUA1_RIB1_RIB3_5
 1  7  9 11 d_GUA1_RIB1_RIB3_P1

[ exclusions ]
 1  2  3  4  5  6 
 2  3  4  5  6 
 3  4  5  6 
 4  5  6 
 5  6 
10  7  8  9
 4 1 7 8 9
 1 7 8 9

;
; Topology prepared automatically using PyCGTOOL
; James Graham <J.A.Graham@soton.ac.uk> 2016
; University of Southampton
; https://github.com/jag1g13/pycgtool
;

[ moleculetype ]
GN6P    1

[ atoms ]
   1 SN6     1 GN6P GLU1    1    0.000    54.0
   2 SP4r    1 GN6P GLU2    2    0.000    54.0
   3 SN4ar   1 GN6P GLU3    3    0.000    54.0
   4 D       1 GN6P P1      4   -2.000
   5 P3d     1 GN6P AMD1    5    0.000
   6 TC4     1 GN6P GLU4    6    0.000    0

[ bonds ]
   1    2    1      0.385  12248 ; GLU1_GLU2
   2    3    1      0.348  12000 ; GLU2_GLU3
   1    5    1      0.362   6230 ; GLU1_AMD1
   1    3    1      0.383  15000 ; GLU1_GLU3

#ifdef FLEXIBLE
   3    4    1      0.327  10000 ; GLU3_P1
#endif

[ angles ]
   2    3    4    2    100     50 ; GLU2_GLU3_P1
   1    3    4    2    146     84 ; GLU1_GLU3_P1
   3    1    5    2    125     45 ; GLU3_GLU1_AMD1
   2    1    5    2     84    173 ; GLU2_GLU1_AMD1

[ dihedrals ]
   5    1    3    4    1   -104      1    1 ; AMD1_GLU1_GLU3_P1

[ constraints ]
#ifndef FLEXIBLE
   3    4    1      0.327 ; GLU3_P1
#endif

[ virtual_sitesn ]
6 1 1 2 3

[ exclusions ]
6 1 2 3 4 5
; This file was generated using the following command:
; /coarse/chris/python_packages/fast_forward/.venv/bin/ff_inter -f mapped.xtc -s mapped.tpr -i GPC.itp -plots -dists
; 

; Please cite the following papers:
; Kroon, P C; Grunewald, F; Barnoud, J; van Tilburg, M; Souza, P C; Wassenaar, T A; Marrink, S J;  elife 2024; 10.7554/elife.90627.2
; Brasnett, C; Grunewald, L; Wassenaar, T A; Marrink, S J; Grunewald, F;  2025; https://zenodo.org/badge/latestdoi/327071500

[ moleculetype ]
GPC 1

[ atoms ]
1 Q2  1 GPC NC3  1  1.0 72.0
2 TC2 1 GPC C1   2  0.0 36.0
3 Q5  1 GPC P1   3 -1.0 72.0
4 SP1 1 GPC ALC1 4  0.0 54.0
5 TP1 1 GPC ALC2 5  0.0 36.0

[ bonds ]
3 4 1 0.353 9545.397 ; P1_ALC1
1 2 1 0.267 10000 ; NC1_C1
2 3 1 0.327 10000 ; C1_P1
4 5 1 0.257 10000 ; ALC1_ALC2


[ angles ]
1 2 3 10 115.113 61.159 ; NC3_C1_P1
2 3 4 10 103.405 41.855 ; C1_P1_ALC1
3 4 5 10 95.506 50.609 ; P1_ALC1_ALC2

[ dihedrals ]
1 2 3 4 2 -176.872 0.261 ; NC3_C1_P1_ALC1
2 3 4 5 2 -176.299 0.261 ; C1_P1_ALC1_ALC2


; This file was generated using the following command:
; /coarse/chris/python_packages/fast_forward/.venv/bin/ff_inter -f mapped.xtc -s mapped.tpr -i GSH.itp -plots -dists
; 

; Please cite the following papers:
; Kroon, P C; Grunewald, F; Barnoud, J; van Tilburg, M; Souza, P C; Wassenaar, T A; Marrink, S J;  elife 2024; 10.7554/elife.90627.2
; Brasnett, C; Grunewald, L; Wassenaar, T A; Marrink, S J; Grunewald, F;  2025; https://zenodo.org/badge/latestdoi/327071500

[ moleculetype ]
GSH 1

[ atoms ]
1 SQ5n 1 GSH CAC1 1 -1.0 
2 Q4p  1 GSH AMC1 2  1.0 
3 P2   1 GSH AMD1 3  0.0 
4 TC6  1 GSH SUL1 4  0.0 
5 P2   1 GSH AMD2 5  0.0 
6 SQ5n 1 GSH CAC2 6 -1.0 

[ bonds ]
1 2 1 0.278 5665.179 ; CAC1_AMC1
3 4 1 0.274 5037.041 ; AMD1_SUL1
3 5 1 0.355 9344.379 ; AMD1_AMD2

#ifdef FLEXIBLE
5 6 1 0.283 10000 ; AMD2_CAC2
2 3 1 0.414 10000 ; AMC1_AMD1
#endif

[ constraints ]
#ifndef FLEXIBLE
5 6 1 0.283 ; AMD2_CAC2
2 3 1 0.414 ; AMC1_AMD1
#endif

[ angles ]
1 2 3 10 115.435 46.5 ; CAC1_AMC1_AMD1
2 3 4 10 128.956 82.921 ; AMC1_AMD1_SUL1
2 3 5 10 132.017 90.844 ; AMC1_AMD1_AMD2
3 5 6 10 126.545 77.689 ; AMD1_AMD2_CAC2
4 3 5 10 82.73 50.959 ; SUL1_AMD1_AMD2

[ dihedrals ]
4 3 5 6 2 165.929 1.385 ; SUL1_AMD1_AMD2_CAC2
1 2 3 4 2 157.964 0.562 ; CAC1_AMC1_AMD1_SUL1

; AMC1_AMD1_AMD2_CAC2
2 3 5 6 9 26.744 -2.126 1 ; AMC1_AMD1_AMD2_CAC2
2 3 5 6 9 12.695 -0.301 2 ; AMC1_AMD1_AMD2_CAC2
2 3 5 6 9 -75.659 0.245 3 ; AMC1_AMD1_AMD2_CAC2
2 3 5 6 9 118.788 -0.438 4 ; AMC1_AMD1_AMD2_CAC2
2 3 5 6 9 129.772 -0.323 5 ; AMC1_AMD1_AMD2_CAC2
2 3 5 6 9 107.871 -0.068 6 ; AMC1_AMD1_AMD2_CAC2
2 3 5 6 9 180.0 0.07 7 ; AMC1_AMD1_AMD2_CAC2
2 3 5 6 9 -12.214 0.053 8 ; AMC1_AMD1_AMD2_CAC2
2 3 5 6 9 22.18 0.086 9 ; AMC1_AMD1_AMD2_CAC2

; CAC1_AMC1_AMD1_AMD2
1 2 3 5 9 -90.492 -1.101 1 ; CAC1_AMC1_AMD1_AMD2
1 2 3 5 9 -16.776 -0.673 2 ; CAC1_AMC1_AMD1_AMD2
1 2 3 5 9 -110.289 -0.616 3 ; CAC1_AMC1_AMD1_AMD2
1 2 3 5 9 71.329 -0.177 4 ; CAC1_AMC1_AMD1_AMD2
1 2 3 5 9 72.084 -0.03 5 ; CAC1_AMC1_AMD1_AMD2
1 2 3 5 9 26.671 -0.06 6 ; CAC1_AMC1_AMD1_AMD2
1 2 3 5 9 -111.463 -0.046 7 ; CAC1_AMC1_AMD1_AMD2
1 2 3 5 9 115.77 -0.038 8 ; CAC1_AMC1_AMD1_AMD2
1 2 3 5 9 -95.934 -0.035 9 ; CAC1_AMC1_AMD1_AMD2


; This file was generated using the following command:
; /coarse/chris/python_packages/fast_forward/.venv/bin/ff_inter -f mapped.xtc -s mapped.tpr -i GSSG.itp -plots -dists
; 

; Please cite the following papers:
; Brasnett, C; Grunewald, L; Wassenaar, T A; Marrink, S J; Grunewald, F;  2025; https://zenodo.org/badge/latestdoi/327071500
; Kroon, P C; Grunewald, F; Barnoud, J; van Tilburg, M; Souza, P C; Wassenaar, T A; Marrink, S J;  elife 2024; 10.7554/elife.90627.2

[ moleculetype ]
GSSG 1

[ atoms ]
 1 SQ5n 1 GSSG CAC1  1 -1.0 
 2 P2   1 GSSG AMD1  2  0.0 
 3 P2   1 GSSG AMD2  3  0.0 
 4 Q4p  1 GSSG AMC1  4  1.0 
 5 SQ5n 1 GSSG CAC2  5 -1.0 
 6 TC6  1 GSSG SUL1  6  0.0 
 7 SQ5n 1 GSSG CAC3  7 -1.0 
 8 P2   1 GSSG AMD3  8  0.0 
 9 P2   1 GSSG AMD4  9  0.0 
10 Q4p  1 GSSG AMC2 10  1.0 
11 SQ5n 1 GSSG CAC4 11 -1.0 
12 TC6  1 GSSG SUL2 12  0.0 

[ bonds ]
 2  3 1 0.361 3395.179 ; AMD1_AMD2
 4  5 1 0.275 5499.445 ; AMC1_CAC2
 8  9 1 0.357 5395.968 ; AMD3_AMD4
10 11 1 0.27 8039.36 ; AMC2_CAC4
 3  4 1 0.385 8875.61 ; AMD2_AMC1
 6 12 1 0.343 1880.538 ; SUL1_SUL2

#ifdef FLEXIBLE
 3  6 1 0.279 10000 ; AMD2_SUL1
 7  8 1 0.282 10000 ; CAC3_AMD3
 9 12 1 0.273 10000 ; AMD4_SUL2
 1  2 1 0.284 10000 ; CAC1_AMD1
 9 10 1 0.416 10000 ; AMD4_AMC2
#endif

[ constraints ]
#ifndef FLEXIBLE
 3  6 1 0.279 ; AMD2_SUL1
 7  8 1 0.282 ; CAC3_AMD3
 9 12 1 0.273 ; AMD4_SUL2
 1  2 1 0.284 ; CAC1_AMD1
 9 10 1 0.416 ; AMD4_AMC2
#endif

[ angles ]
 1  2  3 10 124.482 73.797 ; CAC1_AMD1_AMD2
 2  3  4 10 133.807 70.348 ; AMD1_AMD2_AMC1
 2  3  6 10 79.131 51.992 ; AMD1_AMD2_SUL1
 3  4  5 10 113.584 45.57 ; AMD2_AMC1_CAC2
 3  6 12 10 100.854 10.492 ; AMD2_SUL1_SUL2
 4  3  6 10 139.651 119.621 ; AMC1_AMD2_SUL1
 6 12  9 10 110.449 11.952 ; SUL1_SUL2_AMD4
 7  8  9 10 128.756 82.456 ; CAC3_AMD3_AMD4
 8  9 10 10 131.367 84.313 ; AMD3_AMD4_AMC2
 8  9 12 10 79.019 52.031 ; AMD3_AMD4_SUL2
 9 10 11 10 109.92 53.204 ; AMD4_AMC2_CAC4
10  9 12 10 135.195 100.973 ; AMC2_AMD4_SUL2

[ dihedrals ]
 1  2  3  6 2 179.851 1.331 ; CAC1_AMD1_AMD2_SUL1
11 10  9 12 2 -162.376 0.261 ; CAC4_AMC2_AMD4_SUL2
 2  3  4  5 2 166.788 0.306 ; AMD1_AMD2_AMC1_CAC2
 7  8  9 12 2 174.695 0.886 ; CAC3_AMD3_AMD4_SUL2
 8  9 10 11 2 -174.523 0.261 ; AMD3_AMD4_AMC2_CAC4

; AMC1_AMD2_SUL1_SUL2
 4  3  6 12 9 -52.097 -2.261 1 ; AMC1_AMD2_SUL1_SUL2
 4  3  6 12 9 16.305 1.509 2 ; AMC1_AMD2_SUL1_SUL2
 4  3  6 12 9 24.16 -0.977 3 ; AMC1_AMD2_SUL1_SUL2
 4  3  6 12 9 -4.275 -1.116 4 ; AMC1_AMD2_SUL1_SUL2
 4  3  6 12 9 -121.597 0.285 5 ; AMC1_AMD2_SUL1_SUL2
 4  3  6 12 9 11.572 -0.179 6 ; AMC1_AMD2_SUL1_SUL2
 4  3  6 12 9 -36.745 -0.287 7 ; AMC1_AMD2_SUL1_SUL2
 4  3  6 12 9 -22.279 0.262 8 ; AMC1_AMD2_SUL1_SUL2
 4  3  6 12 9 73.126 -0.106 9 ; AMC1_AMD2_SUL1_SUL2

; AMD1_AMD2_SUL1_SUL2
 2  3  6 12 9 -22.222 2.271 1 ; AMD1_AMD2_SUL1_SUL2
 2  3  6 12 9 -123.508 -1.83 2 ; AMD1_AMD2_SUL1_SUL2
 2  3  6 12 9 -62.582 -2.318 3 ; AMD1_AMD2_SUL1_SUL2
 2  3  6 12 9 -74.519 2.728 4 ; AMD1_AMD2_SUL1_SUL2
 2  3  6 12 9 -102.563 -0.95 5 ; AMD1_AMD2_SUL1_SUL2
 2  3  6 12 9 -111.898 -0.391 6 ; AMD1_AMD2_SUL1_SUL2
 2  3  6 12 9 6.26 -1.339 7 ; AMD1_AMD2_SUL1_SUL2
 2  3  6 12 9 180.0 -0.834 8 ; AMD1_AMD2_SUL1_SUL2

; AMD2_SUL1_SUL2_AMD4
 3  6 12  9 9 69.588 -2.876 1 ; AMD2_SUL1_SUL2_AMD4
 3  6 12  9 9 -47.536 1.726 2 ; AMD2_SUL1_SUL2_AMD4
 3  6 12  9 9 -13.99 0.671 3 ; AMD2_SUL1_SUL2_AMD4
 3  6 12  9 9 -125.459 -0.362 4 ; AMD2_SUL1_SUL2_AMD4
 3  6 12  9 9 -52.032 -0.533 5 ; AMD2_SUL1_SUL2_AMD4
 3  6 12  9 9 2.23 -0.627 6 ; AMD2_SUL1_SUL2_AMD4
 3  6 12  9 9 54.413 -0.516 7 ; AMD2_SUL1_SUL2_AMD4
 3  6 12  9 9 116.214 -0.381 8 ; AMD2_SUL1_SUL2_AMD4
 3  6 12  9 9 -7.501 0.115 9 ; AMD2_SUL1_SUL2_AMD4

; CAC1_AMD1_AMD2_AMC1
 1  2  3  4 9 24.042 -2.282 1 ; CAC1_AMD1_AMD2_AMC1
 1  2  3  4 9 -7.529 -0.493 2 ; CAC1_AMD1_AMD2_AMC1
 1  2  3  4 9 32.506 -0.208 3 ; CAC1_AMD1_AMD2_AMC1
 1  2  3  4 9 112.619 -0.395 4 ; CAC1_AMD1_AMD2_AMC1
 1  2  3  4 9 -44.491 0.363 5 ; CAC1_AMD1_AMD2_AMC1
 1  2  3  4 9 -27.127 0.143 6 ; CAC1_AMD1_AMD2_AMC1
 1  2  3  4 9 37.547 0.031 7 ; CAC1_AMD1_AMD2_AMC1
 1  2  3  4 9 -172.231 0.03 8 ; CAC1_AMD1_AMD2_AMC1
 1  2  3  4 9 -102.864 0.023 9 ; CAC1_AMD1_AMD2_AMC1

; CAC2_AMC1_AMD2_SUL1
 5  4  3  6 9 28.733 -0.589 1 ; CAC2_AMC1_AMD2_SUL1
 5  4  3  6 9 68.118 -0.448 2 ; CAC2_AMC1_AMD2_SUL1
 5  4  3  6 9 -162.677 -0.252 3 ; CAC2_AMC1_AMD2_SUL1
 5  4  3  6 9 73.928 -0.377 4 ; CAC2_AMC1_AMD2_SUL1
 5  4  3  6 9 138.888 -0.323 5 ; CAC2_AMC1_AMD2_SUL1
 5  4  3  6 9 122.278 -0.122 6 ; CAC2_AMC1_AMD2_SUL1
 5  4  3  6 9 74.26 -0.216 7 ; CAC2_AMC1_AMD2_SUL1
 5  4  3  6 9 101.219 -0.242 8 ; CAC2_AMC1_AMD2_SUL1
 5  4  3  6 9 149.428 -0.187 9 ; CAC2_AMC1_AMD2_SUL1

; CAC3_AMD3_AMD4_AMC2
 7  8  9 10 9 27.379 -1.714 1 ; CAC3_AMD3_AMD4_AMC2
 7  8  9 10 9 -63.977 -0.369 2 ; CAC3_AMD3_AMD4_AMC2
 7  8  9 10 9 54.24 -0.034 3 ; CAC3_AMD3_AMD4_AMC2
 7  8  9 10 9 127.25 -0.351 4 ; CAC3_AMD3_AMD4_AMC2
 7  8  9 10 9 141.883 -0.274 5 ; CAC3_AMD3_AMD4_AMC2
 7  8  9 10 9 -8.206 0.008 6 ; CAC3_AMD3_AMD4_AMC2
 7  8  9 10 9 16.037 -0.047 7 ; CAC3_AMD3_AMD4_AMC2

; SUL1_SUL2_AMD4_AMC2
 6 12  9 10 9 -41.472 -2.654 1 ; SUL1_SUL2_AMD4_AMC2
 6 12  9 10 9 41.079 1.411 2 ; SUL1_SUL2_AMD4_AMC2
 6 12  9 10 9 2.072 -1.016 3 ; SUL1_SUL2_AMD4_AMC2
 6 12  9 10 9 -4.693 -1.821 4 ; SUL1_SUL2_AMD4_AMC2
 6 12  9 10 9 128.942 0.652 5 ; SUL1_SUL2_AMD4_AMC2
 6 12  9 10 9 86.609 0.659 6 ; SUL1_SUL2_AMD4_AMC2

; SUL1_SUL2_AMD4_AMD3
 6 12  9  8 9 -2.063 2.406 1 ; SUL1_SUL2_AMD4_AMD3
 6 12  9  8 9 -75.534 -1.535 2 ; SUL1_SUL2_AMD4_AMD3
 6 12  9  8 9 -54.028 -1.733 3 ; SUL1_SUL2_AMD4_AMD3
 6 12  9  8 9 -41.391 2.722 4 ; SUL1_SUL2_AMD4_AMD3
 6 12  9  8 9 -57.881 -1.572 5 ; SUL1_SUL2_AMD4_AMD3
 6 12  9  8 9 91.833 -1.062 6 ; SUL1_SUL2_AMD4_AMD3
 6 12  9  8 9 60.857 -0.577 7 ; SUL1_SUL2_AMD4_AMD3
 6 12  9  8 9 -86.562 -0.762 8 ; SUL1_SUL2_AMD4_AMD3
 6 12  9  8 9 50.852 -0.554 9 ; SUL1_SUL2_AMD4_AMD3


; This file was generated using the following command:
; /coarse/chris/python_packages/fast_forward/.venv/bin/ff_inter -f mapped.xtc -s mapped.tpr -i GTPH.itp -max-dihedral 5 -plots -itp-only -dists
; 

; Please cite the following papers:
; Brasnett, C; Grunewald, L; Wassenaar, T A; Marrink, S J; Grunewald, F;  2025; https://zenodo.org/badge/latestdoi/327071500
; Kroon, P C; Grunewald, F; Barnoud, J; van Tilburg, M; Souza, P C; Wassenaar, T A; Marrink, S J;  elife 2024; 10.7554/elife.90627.2

[ moleculetype ]
GTPH 1

[ atoms ]
 1 SN1   1 GTPH GUA1  1 0.0 45.0
 2 TP1d  1 GTPH GUA2  2 0.0 45.0
 3 TP1d  1 GTPH GUA3  3 0.0  0.0
 4 TP1a  1 GTPH GUA4  4 0.0 45.0
 5 TN5a  1 GTPH GUA5  5 0.0  0.0
 6 TN3a  1 GTPH GUA6  6 0.0  0.0
 7 SN6   1 GTPH RIB1  7 0.0 54.0
 8 TP1   1 GTPH RIB2  8 0.0 54.0
 9 SN4ar 1 GTPH RIB3  9 0.0 54.0
10 TC4   1 GTPH RIB4 10 0.0  0.0
11 Q5n   1 GTPH P1   11 -1.0 72.0
12 Q5n   1 GTPH P2   12 -1.0 72.0
13 Q5n   1 GTPH P3   13 -1.0 72.0

[ bonds ]
 1  7 b_GUA1_RIB1
 7  8 b_RIB1_RIB2

#ifdef FLEXIBLE
 7  9 b_RIB1_RIB3
 8  9 b_RIB2_RIB3
 9 11 b_RIB3_P1
11 12 b_H_P1_P2
12 13 b_H_P2_P3
#endif

[ constraints ]
 1  2 1 0.566
 1  4 1 0.483
 2  4 1 0.504

#ifndef FLEXIBLE
 7  9 c_RIB1_RIB3
 8  9 c_RIB2_RIB3
 9 11 c_RIB3_P1
11 12 c_H_P1_P2
12 13 c_H_P2_P3
#endif

[ angles ]
 4  1  7 a_GUA4_GUA1_RIB1
 1  7  8 a_GUA1_RIB1_RIB2
 1  7  9 a_GUA1_RIB1_RIB3
 7  9 11 a_RIB1_RIB3_P1
 9 11 12 a_RIB3_P1_P2
11 12 13 a_P1_P2_P3

[ virtual_sitesn ]
 3 2  2  4
 5 2  1  2
 6 2  1  1  2  4  4
10 1  7  8  9

[ dihedrals ]
 1  7  8  9 d_GUA1_RIB1_RIB2_RIB3
 4  1  7  9 d_GUA4_GUA1_RIB1_RIB3_1
 4  1  7  9 d_GUA4_GUA1_RIB1_RIB3_2
 4  1  7  9 d_GUA4_GUA1_RIB1_RIB3_3
 4  1  7  9 d_GUA4_GUA1_RIB1_RIB3_4
 4  1  7  9 d_GUA4_GUA1_RIB1_RIB3_5
 1  7  9 11 d_GUA1_RIB1_RIB3_P1
 7  9 11 12 d_RIB1_RIB3_P1_P2
 9 11 12 13 d_RIB3_P1_P2_P3

[ exclusions ]
 1  2  3  4  5  6 
 2  3  4  5  6 
 3  4  5  6 
 4  5  6 
 5  6 
10  7  8  9
 4 1 7 8 9
 1 7 8 9

; This file was generated using the following command:
; /coarse/chris/python_packages/fast_forward/.venv/bin/ff_inter -f mapped.xtc -s mapped.tpr -i GTP.itp -max-dihedral 5 -plots -itp-only -dists
; 

; Please cite the following papers:
; Brasnett, C; Grunewald, L; Wassenaar, T A; Marrink, S J; Grunewald, F;  2025; https://zenodo.org/badge/latestdoi/327071500
; Kroon, P C; Grunewald, F; Barnoud, J; van Tilburg, M; Souza, P C; Wassenaar, T A; Marrink, S J;  elife 2024; 10.7554/elife.90627.2

[ moleculetype ]
GTP 1

[ atoms ]
 1 SN1   1 GTP GUA1  1 0.0 45.0
 2 TP1d  1 GTP GUA2  2 0.0 45.0
 3 TP1d  1 GTP GUA3  3 0.0  0.0
 4 TP1a  1 GTP GUA4  4 0.0 45.0
 5 TN5a  1 GTP GUA5  5 0.0  0.0
 6 TN3a  1 GTP GUA6  6 0.0  0.0
 7 SN6   1 GTP RIB1  7 0.0 54.0
 8 TP1   1 GTP RIB2  8 0.0 54.0
 9 SN4ar 1 GTP RIB3  9 0.0 54.0
10 TC4   1 GTP RIB4 10 0.0  0.0
11 Q5n   1 GTP P1   11 -1.0 72.0
12 Q5n   1 GTP P2   12 -1.0 72.0
13 D     1 GTP P3   13 -2.0 72.0

[ bonds ]
 1  7 b_GUA1_RIB1
 7  8 b_RIB1_RIB2

#ifdef FLEXIBLE
 7  9 b_RIB1_RIB3
 8  9 b_RIB2_RIB3
 9 11 b_RIB3_P1
11 12 b_P1_P2
12 13 b_P2_P3
#endif

[ constraints ]
 1  2 1 0.566
 1  4 1 0.483
 2  4 1 0.504

#ifndef FLEXIBLE
 7  9 c_RIB1_RIB3
 8  9 c_RIB2_RIB3
 9 11 c_RIB3_P1
11 12 c_P1_P2
12 13 c_P2_P3
#endif

[ angles ]
 4  1  7 a_GUA4_GUA1_RIB1
 1  7  8 a_GUA1_RIB1_RIB2
 1  7  9 a_GUA1_RIB1_RIB3
 7  9 11 a_RIB1_RIB3_P1
 9 11 12 a_RIB3_P1_P2
11 12 13 a_P1_P2_P3

[ virtual_sitesn ]
 3 2  2  4
 5 2  1  2
 6 2  1  1  2  4  4
10 1  7  8  9

[ dihedrals ]
 1  7  8  9 d_GUA1_RIB1_RIB2_RIB3
 4  1  7  9 d_GUA4_GUA1_RIB1_RIB3_1
 4  1  7  9 d_GUA4_GUA1_RIB1_RIB3_2
 4  1  7  9 d_GUA4_GUA1_RIB1_RIB3_3
 4  1  7  9 d_GUA4_GUA1_RIB1_RIB3_4
 4  1  7  9 d_GUA4_GUA1_RIB1_RIB3_5
 1  7  9 11 d_GUA1_RIB1_RIB3_P1
 7  9 11 12 d_RIB1_RIB3_P1_P2
 9 11 12 13 d_RIB3_P1_P2_P3

[ exclusions ]
 1  2  3  4  5  6 
 2  3  4  5  6 
 3  4  5  6 
 4  5  6 
 5  6 
10  7  8  9
 4 1 7 8 9
 1 7 8 9

; This file was generated using the following command:
; /coarse/chris/python_packages/fast_forward/.venv/bin/ff_inter -f mapped.xtc -s mapped.tpr -i GUO.itp -max-dihedral 5 -plots -itp-only -dists
; 

; Please cite the following papers:
; Brasnett, C; Grunewald, L; Wassenaar, T A; Marrink, S J; Grunewald, F;  2025; https://zenodo.org/badge/latestdoi/327071500
; Kroon, P C; Grunewald, F; Barnoud, J; van Tilburg, M; Souza, P C; Wassenaar, T A; Marrink, S J;  elife 2024; 10.7554/elife.90627.2

[ moleculetype ]
GUA 1

[ atoms ]
 1 SN1   1 GUA GUA1  1 0.0 45.0
 2 TP1d  1 GUA GUA2  2 0.0 45.0
 3 TP1d  1 GUA GUA3  3 0.0  0.0
 4 TP1a  1 GUA GUA4  4 0.0 45.0
 5 TN5a  1 GUA GUA5  5 0.0  0.0
 6 TN3a  1 GUA GUA6  6 0.0  0.0

[ constraints ]
 1  2 1 0.566
 1  4 1 0.483
 2  4 1 0.504

[ virtual_sitesn ]
 3 2  2  4
 5 2  1  2
 6 2  1  1  2  4  4

[ exclusions ]
 1  2  3  4  5  6 
 2  3  4  5  6 
 3  4  5  6 
 4  5  6 
 5  6 

; This file was generated using the following command:
; /coarse/chris/python_packages/fast_forward/.venv/bin/ff_inter -f mapped.xtc -s mapped.tpr -i GUO.itp -max-dihedral 5 -plots -itp-only -dists
; 

; Please cite the following papers:
; Brasnett, C; Grunewald, L; Wassenaar, T A; Marrink, S J; Grunewald, F;  2025; https://zenodo.org/badge/latestdoi/327071500
; Kroon, P C; Grunewald, F; Barnoud, J; van Tilburg, M; Souza, P C; Wassenaar, T A; Marrink, S J;  elife 2024; 10.7554/elife.90627.2

[ moleculetype ]
GUO 1

[ atoms ]
 1 SN1   1 GUO GUA1  1 0.0 45.0
 2 TP1d  1 GUO GUA2  2 0.0 45.0
 3 TP1d  1 GUO GUA3  3 0.0  0.0
 4 TP1a  1 GUO GUA4  4 0.0 45.0
 5 TN5a  1 GUO GUA5  5 0.0  0.0
 6 TN3a  1 GUO GUA6  6 0.0  0.0
 7 SN6   1 GUO RIB1  7 0.0 54.0
 8 TP1   1 GUO RIB2  8 0.0 54.0
 9 SN4ar 1 GUO RIB3  9 0.0 54.0
10 TC4   1 GUO RIB4 10 0.0  0.0

[ bonds ]
 1  7 b_GUA1_RIB1
 7  8 b_RIB1_RIB2

#ifdef FLEXIBLE
 7  9 b_RIB1_RIB3
 8  9 b_RIB2_RIB3
#endif

[ constraints ]
 1  2 1 0.566
 1  4 1 0.483
 2  4 1 0.504

#ifndef FLEXIBLE
 7  9 c_RIB1_RIB3
 8  9 c_RIB2_RIB3
#endif

[ angles ]
 4  1  7 a_GUA4_GUA1_RIB1
 1  7  8 a_GUA1_RIB1_RIB2
 1  7  9 a_GUA1_RIB1_RIB3

[ virtual_sitesn ]
 3 2  2  4
 5 2  1  2
 6 2  1  1  2  4  4
10 1  7  8  9

[ dihedrals ]
 1  7  8  9 d_GUA1_RIB1_RIB2_RIB3
 4  1  7  9 d_GUA4_GUA1_RIB1_RIB3_1
 4  1  7  9 d_GUA4_GUA1_RIB1_RIB3_2
 4  1  7  9 d_GUA4_GUA1_RIB1_RIB3_3
 4  1  7  9 d_GUA4_GUA1_RIB1_RIB3_4
 4  1  7  9 d_GUA4_GUA1_RIB1_RIB3_5

[ exclusions ]
 1  2  3  4  5  6 
 2  3  4  5  6 
 3  4  5  6 
 4  5  6 
 5  6 
10  7  8  9
 4 1 7 8 9
 1 7 8 9

; This file was generated using the following command:
; /coarse/chris/python_packages/fast_forward/.venv/bin/ff_inter -f mapped.xtc -s mapped.tpr -i KGLU.itp -plots -dists -max-dihedral 5
; 

; Please cite the following papers:
; Brasnett, C; Grunewald, L; Wassenaar, T A; Marrink, S J; Grunewald, F;  2025; https://zenodo.org/badge/latestdoi/327071500
; Kroon, P C; Grunewald, F; Barnoud, J; van Tilburg, M; Souza, P C; Wassenaar, T A; Marrink, S J;  elife 2024; 10.7554/elife.90627.2

[ moleculetype ]
KGLU 1

[ atoms ]
1 SQ5n 1 KGLU CAC1 1 -1.0 
2 TN5a 1 KGLU CO1  2  0.0 
3 TC1  1 KGLU C1   3  0.0 
4 SQ5n 1 KGLU CAC2 4 -1.0 

[ bonds ]

2 3 1 0.218 10000 ; CO1_C1
3 4 1 0.227 10000 ; C1_CAC2

#ifdef FLEXIBLE
1 2 1 0.229 10000 ; CAC1_CO1
#endif

[ constraints ]
#ifndef FLEXIBLE
1 2 1 0.229 ; CAC1_CO1
#endif

[ angles ]
1 2 3 1 105.654 300 ; CAC1_CO1_C1
;2 3 4 1 165.699 150 ; CO1_C1_CAC2
2 3 4 1 140 50 ; CO1_C1_CAC2

[ dihedrals ]
1 2 3 4 1 0 2 1 ; CAC1_CO1_C1_CAC2

[ exclusions ]
1 2 3 4
2 3 4
3 4

; This file was generated using the following command:
; ff_inter -f mapped.xtc -s mapped.gro -i LAC.itp -dists -plots
;

; Please cite the following papers:
; Brasnett, C; Grunewald, L; Wassenaar, T A; Marrink, S J; Grunewald, F;  2025; https://zenodo.org/badge/latestdoi/327071500
; Kroon, P C; Grunewald, F; Barnoud, J; van Tilburg, M; Souza, P C; Wassenaar, T A; Marrink, S J;  elife 2024; 10.7554/elife.90627.2

[ moleculetype ]
LAC 1

[ atoms ]
1 SP1  1 LAC ALC1 1  1.0 54.0
2 SQ5n 1 LAC CAC1 2 -1.0 54.0

[ bonds ]
#ifdef FLEXIBLE
1 2 1 0.258 10000 ; ALC1_CAC1
#endif

[ constraints ]
#ifndef FLEXIBLE
1 2 1 0.258 ; ALC1_CAC1
#endif


; This file was generated using the following command:
; /coarse/chris/python_packages/fast_forward/.venv/bin/ff_inter -f mapped.xtc -s mapped.tpr -i ALA.itp -max-dihedral 5 -plots -itp-only -dists
; 

; Please cite the following papers:
; Brasnett, C; Grunewald, L; Wassenaar, T A; Marrink, S J; Grunewald, F;  2025; https://zenodo.org/badge/latestdoi/327071500
; Kroon, P C; Grunewald, F; Barnoud, J; van Tilburg, M; Souza, P C; Wassenaar, T A; Marrink, S J;  elife 2024; 10.7554/elife.90627.2

[ moleculetype ]
LALA 1

[ atoms ]
1 SQ4p 1 LALA BB0 1  1.0 
2 SQ5n 1 LALA BB1 2 -1.0 
3 TC3  1 LALA SC1 3  0.0 

[ constraints ]
1 2 1 0.284 ; BB0_BB1
1 3 1 0.249 ; BB0_SC1
2 3 1 0.307 ; BB1_SC1


; This file was generated using the following command:
; /coarse/chris/python_packages/fast_forward/.venv/bin/ff_inter -f mapped.xtc -s mapped.tpr -i LARG.itp -max-dihedral 5 -plots -itp-only -dists
; 

; Please cite the following papers:
; Kroon, P C; Grunewald, F; Barnoud, J; van Tilburg, M; Souza, P C; Wassenaar, T A; Marrink, S J;  elife 2024; 10.7554/elife.90627.2
; Brasnett, C; Grunewald, L; Wassenaar, T A; Marrink, S J; Grunewald, F;  2025; https://zenodo.org/badge/latestdoi/327071500

[ moleculetype ]
LARG 1

[ atoms ]
1 SQ4p 1 LARG BB0 1  1.0 
2 SQ5n 1 LARG BB1 2 -1.0 
3 SC3  1 LARG SC1 3  0.0 
4 SQ3p 1 LARG SC2 4  1.0 

[ bonds ]
3 4 1 0.380 5000

[ constraints ]
1 2 1 0.283 ; BB0_BB1
1 3 1 0.314 ; BB0_SC1
2 3 1 0.379 ; BB1_SC1

[ angles ]
1 3 4 10 142.458 98.352 ; BB0_SC1_SC2
2 3 4 10 126.863 24.381 ; BB1_SC1_SC2


; This file was generated using the following command:
; /coarse/chris/python_packages/fast_forward/.venv/bin/ff_inter -f mapped.xtc -s mapped.tpr -i LASN.itp -max-dihedral 5 -plots -itp-only -dists
; 

; Please cite the following papers:
; Kroon, P C; Grunewald, F; Barnoud, J; van Tilburg, M; Souza, P C; Wassenaar, T A; Marrink, S J;  elife 2024; 10.7554/elife.90627.2
; Brasnett, C; Grunewald, L; Wassenaar, T A; Marrink, S J; Grunewald, F;  2025; https://zenodo.org/badge/latestdoi/327071500

[ moleculetype ]
LASN 1

[ atoms ]
1 SQ4p 1 LASN BB0 1  1.0 
2 SQ5n 1 LASN BB1 2 -1.0 
3 SP5  1 LASN SC1 3  0.0 

[ constraints ]
1 2 1 0.282 ; BB0_BB1
1 3 1 0.33 ; BB0_SC1
2 3 1 0.391 ; BB1_SC1


; This file was generated using the following command:
; /coarse/chris/python_packages/fast_forward/.venv/bin/ff_inter -f mapped.xtc -s mapped.tpr -i LASP.itp -max-dihedral 5 -plots -itp-only -dists
; 

; Please cite the following papers:
; Kroon, P C; Grunewald, F; Barnoud, J; van Tilburg, M; Souza, P C; Wassenaar, T A; Marrink, S J;  elife 2024; 10.7554/elife.90627.2
; Brasnett, C; Grunewald, L; Wassenaar, T A; Marrink, S J; Grunewald, F;  2025; https://zenodo.org/badge/latestdoi/327071500

[ moleculetype ]
LASP 1

[ atoms ]
1 SQ4p 1 LASP BB0 1  1.0 
2 SQ5n 1 LASP BB1 2 -1.0 
3 SQ5n 1 LASP SC1 3 -1.0 

[ constraints ]
1 2 1 0.281 ; BB0_BB1
1 3 1 0.291 ; BB0_SC1
2 3 1 0.336 ; BB1_SC1


; This file was generated using the following command:
; /coarse/chris/python_packages/fast_forward/.venv/bin/ff_inter -f mapped.xtc -s mapped.tpr -i LCYS.itp -max-dihedral 10 -plots -itp-only -dists
; 

; Please cite the following papers:
; Kroon, P C; Grunewald, F; Barnoud, J; van Tilburg, M; Souza, P C; Wassenaar, T A; Marrink, S J;  elife 2024; 10.7554/elife.90627.2
; Brasnett, C; Grunewald, L; Wassenaar, T A; Marrink, S J; Grunewald, F;  2025; https://zenodo.org/badge/latestdoi/327071500

[ moleculetype ]
LCYS 1

[ atoms ]
1 SQ4p 1 LCYS BB0 1  1.0 
2 SQ5n 1 LCYS BB1 2 -1.0 
3 TC6  1 LCYS SC1 3  0.0 

[ constraints ]
1 2 1 0.284 ; BB0_BB1
1 3 1 0.279 ; BB0_SC1
2 3 1 0.327 ; BB1_SC1


; This file was generated using the following command:
; /coarse/chris/python_packages/fast_forward/.venv/bin/ff_inter -f mapped.xtc -s mapped.tpr -i LGLN.itp -max-dihedral 5 -plots -itp-only -dists
; 

; Please cite the following papers:
; Kroon, P C; Grunewald, F; Barnoud, J; van Tilburg, M; Souza, P C; Wassenaar, T A; Marrink, S J;  elife 2024; 10.7554/elife.90627.2
; Brasnett, C; Grunewald, L; Wassenaar, T A; Marrink, S J; Grunewald, F;  2025; https://zenodo.org/badge/latestdoi/327071500

[ moleculetype ]
LGLN 1

[ atoms ]
1 SQ4p 1 LGLN BB0 1  1.0 
2 SQ5n 1 LGLN BB1 2 -1.0 
3 P5   1 LGLN SC1 3  0.0 

[ constraints ]
1 2 1 0.283 ; BB0_BB1
1 3 1 0.357 ; BB0_SC1
2 3 1 0.423 ; BB1_SC1


; This file was generated using the following command:
; /coarse/chris/python_packages/fast_forward/.venv/bin/ff_inter -f mapped.xtc -s mapped.tpr -i LGLU.itp -max-dihedral 5 -plots -itp-only -dists
; 

; Please cite the following papers:
; Brasnett, C; Grunewald, L; Wassenaar, T A; Marrink, S J; Grunewald, F;  2025; https://zenodo.org/badge/latestdoi/327071500
; Kroon, P C; Grunewald, F; Barnoud, J; van Tilburg, M; Souza, P C; Wassenaar, T A; Marrink, S J;  elife 2024; 10.7554/elife.90627.2

[ moleculetype ]
LGLU 1

[ atoms ]
1 SQ4p 1 LGLU BB0 1  1.0 
2 SQ5n 1 LGLU BB1 2 -1.0 
3 Q5n  1 LGLU SC1 3 -1.0 

[ constraints ]
1 2 1 0.284 ; BB0_BB1
1 3 1 0.319 ; BB0_SC1
2 3 1 0.383 ; BB1_SC1


; This file was generated using the following command:
; /coarse/chris/python_packages/fast_forward/.venv/bin/ff_inter -f mapped.xtc -s mapped.tpr -i LGLY.itp -max-dihedral 5 -plots -itp-only -dists
; 

; Please cite the following papers:
; Brasnett, C; Grunewald, L; Wassenaar, T A; Marrink, S J; Grunewald, F;  2025; https://zenodo.org/badge/latestdoi/327071500
; Kroon, P C; Grunewald, F; Barnoud, J; van Tilburg, M; Souza, P C; Wassenaar, T A; Marrink, S J;  elife 2024; 10.7554/elife.90627.2

[ moleculetype ]
LGLY 1

[ atoms ]
1 SQ4p 1 LGLY BB0 1  1.0 
2 SQ5n 1 LGLY BB1 2 -1.0 

[ constraints ]
1 2 1 0.272 ; BB0_BB1


; This file was generated using the following command:
; /Users/chrisbrasnett/virtualenvs/ffwd_env/bin/ff_inter -f mapped.xtc -s mapped.tpr -i LHIS.itp -plots -itp-only -dists
; 

; Please cite the following papers:
; Brasnett, C; Grunewald, L; Wassenaar, T A; Marrink, S J; Grunewald, F;  2025; https://zenodo.org/badge/latestdoi/327071500
; Kroon, P C; Grunewald, F; Barnoud, J; van Tilburg, M; Souza, P C; Wassenaar, T A; Marrink, S J;  elife 2024; 10.7554/elife.90627.2

[ moleculetype ]
LHIS 1

[ atoms ]
1 SQ4p 1 LHIS BB0 1  1.0 48.0
2 SQ5n 1 LHIS BB1 2 -1.0 66.0
3 TC4  1 LHIS SC1 3  0.0  0.0
4 TN6d 1 LHIS SC2 4  0.0 48.0
5 TN5a 1 LHIS SC3 5  0.0     

[ virtual_sites3 ]
3 1 2 4 1 0.364 0.436 ; SC1_BB0_BB1_SC2

[ bonds ]
1 4 1 0.457 3073.614 ; BB0_SC2
2 5 1 0.549 2640.451 ; BB1_SC3
2 4 1 0.609 5000 ; BB1_SC2

#ifdef FLEXIBLE
4 5 1 0.270 10000
#endif

[ constraints ]
1 2 1 0.3 ; BB0_BB1

#ifndef FLEXIBLE
4 5 1 0.270 10000
#endif

[ angles ]
1 4 5 10 67.524 58.726 ; BB0_SC2_SC3
2 4 5 10 68.099 58.247 ; BB1_SC2_SC3

[ exclusions ]
1 2 3 4 5 
2 3 4 5 
3 4 5 
4 5 


; This file was generated using the following command:
; /coarse/chris/python_packages/fast_forward/.venv/bin/ff_inter -f mapped.xtc -s mapped.tpr -i LILE.itp -max-dihedral 10 -plots -itp-only -dists
; 

; Please cite the following papers:
; Kroon, P C; Grunewald, F; Barnoud, J; van Tilburg, M; Souza, P C; Wassenaar, T A; Marrink, S J;  elife 2024; 10.7554/elife.90627.2
; Brasnett, C; Grunewald, L; Wassenaar, T A; Marrink, S J; Grunewald, F;  2025; https://zenodo.org/badge/latestdoi/327071500

[ moleculetype ]
LILE 1

[ atoms ]
1 SQ4p 1 LILE BB0 1  1.0 
2 SQ5n 1 LILE BB1 2 -1.0 
3 SC2  1 LILE SC1 3  0.0 

[ constraints ]
1 2 1 0.267 ; BB0_BB1
1 3 1 0.342 ; BB0_SC1
2 3 1 0.335 ; BB1_SC1


; This file was generated using the following command:
; /coarse/chris/python_packages/fast_forward/.venv/bin/ff_inter -f mapped.xtc -s mapped.tpr -i LLEU.itp -max-dihedral 5 -plots -itp-only -dists
; 

; Please cite the following papers:
; Brasnett, C; Grunewald, L; Wassenaar, T A; Marrink, S J; Grunewald, F;  2025; https://zenodo.org/badge/latestdoi/327071500
; Kroon, P C; Grunewald, F; Barnoud, J; van Tilburg, M; Souza, P C; Wassenaar, T A; Marrink, S J;  elife 2024; 10.7554/elife.90627.2

[ moleculetype ]
LLEU 1

[ atoms ]
1 SQ4p 1 LLEU BB0 1  1.0 
2 SQ5n 1 LLEU BB1 2 -1.0 
3 SC2  1 LLEU SC1 3  0.0 

[ constraints ]
1 2 1 0.283 ; BB0_BB1
1 3 1 0.322 ; BB0_SC1
2 3 1 0.434 ; BB1_SC1


; This file was generated using the following command:
; /coarse/chris/python_packages/fast_forward/.venv/bin/ff_inter -f mapped.xtc -s mapped.tpr -i LLYS.itp -max-dihedral 5 -plots -itp-only -dists
; 

; Please cite the following papers:
; Kroon, P C; Grunewald, F; Barnoud, J; van Tilburg, M; Souza, P C; Wassenaar, T A; Marrink, S J;  elife 2024; 10.7554/elife.90627.2
; Brasnett, C; Grunewald, L; Wassenaar, T A; Marrink, S J; Grunewald, F;  2025; https://zenodo.org/badge/latestdoi/327071500

[ moleculetype ]
LLYS 1

[ atoms ]
1 SQ4p 1 LLYS BB0 1  1.0 
2 SQ5n 1 LLYS BB1 2 -1.0 
3 SC3  1 LLYS SC1 3  0.0 
4 SQ4p 1 LLYS SC2 4  1.0 

[ bonds ]
3 4 1 0.360 5000

[ constraints ]
1 2 1 0.284 ; BB0_BB1
1 3 1 0.314 ; BB0_SC1
2 3 1 0.369 ; BB1_SC1

[ angles ]
1 3 4 10 135.267 82.488 ; BB0_SC1_SC2
2 3 4 10 135.35 21.119 ; BB1_SC1_SC2


; This file was generated using the following command:
; /coarse/chris/python_packages/fast_forward/.venv/bin/ff_inter -f mapped.xtc -s mapped.tpr -i LMET.itp -max-dihedral 5 -plots -itp-only -dists
; 

; Please cite the following papers:
; Brasnett, C; Grunewald, L; Wassenaar, T A; Marrink, S J; Grunewald, F;  2025; https://zenodo.org/badge/latestdoi/327071500
; Kroon, P C; Grunewald, F; Barnoud, J; van Tilburg, M; Souza, P C; Wassenaar, T A; Marrink, S J;  elife 2024; 10.7554/elife.90627.2

[ moleculetype ]
LMET 1

[ atoms ]
1 SQ4p 1 LMET BB0 1  1.0 
2 SQ5n 1 LMET BB1 2 -1.0 
3 C6   1 LMET SC1 3  0.0 

[ constraints ]
1 2 1 0.283 ; BB0_BB1
1 3 1 0.34 ; BB0_SC1
2 3 1 0.424 ; BB1_SC1


; This file was generated using the following command:
; /Users/chrisbrasnett/virtualenvs/ffwd_env/bin/ff_inter -f mapped.xtc -s mapped.tpr -i LPHE.itp -plots -itp-only -dists
; 

; Please cite the following papers:
; Brasnett, C; Grunewald, L; Wassenaar, T A; Marrink, S J; Grunewald, F;  2025; https://zenodo.org/badge/latestdoi/327071500
; Kroon, P C; Grunewald, F; Barnoud, J; van Tilburg, M; Souza, P C; Wassenaar, T A; Marrink, S J;  elife 2024; 10.7554/elife.90627.2

[ moleculetype ]
LPHE 1

[ atoms ]
1 SQ4p 1 LPHE BB0 1  1.0 54.0
2 SQ5n 1 LPHE BB1 2 -1.0 72.0
3 SC4  1 LPHE SC1 3  0.0  0.0
4 TC5  1 LPHE SC2 4  0.0 54.0
5 TC5  1 LPHE SC3 5  0.0     

[ virtual_sites3 ]
3 1 2 4 1 0.305 0.544 ; SC1_BB0_BB1_SC2

[ bonds ]
1 4 1 0.457 4918.26 ; BB0_SC2
2 5 1 0.626 5147.176 ; BB1_SC3
2 4 1 0.625 4999.274 ; BB1_SC2

#ifdef FLEXIBLE
4 5 1 0.290 10000
#endif

[ constraints ]
1 2 1 0.283 ; BB0_BB1

#ifndef FLEXIBLE
4 5 1 0.290 10000
#endif

[ angles ]
1 4 5 10 76.029 53.247 ; BB0_SC2_SC3
2 4 5 10 79.931 51.724 ; BB1_SC2_SC3

[ exclusions ]
1 2 3 4 5 
2 3 4 5 
3 4 5 
4 5 


; This file was generated using the following command:
; /coarse/chris/python_packages/fast_forward/.venv/bin/ff_inter -f mapped.xtc -s mapped.tpr -i LPRO.itp -max-dihedral 10 -plots -itp-only -dists
; 

; Please cite the following papers:
; Brasnett, C; Grunewald, L; Wassenaar, T A; Marrink, S J; Grunewald, F;  2025; https://zenodo.org/badge/latestdoi/327071500
; Kroon, P C; Grunewald, F; Barnoud, J; van Tilburg, M; Souza, P C; Wassenaar, T A; Marrink, S J;  elife 2024; 10.7554/elife.90627.2

[ moleculetype ]
LPRO 1

[ atoms ]
1 SQ4p 1 LPRO BB0 1  1.0 
2 SQ5n 1 LPRO BB1 2 -1.0 
3 SC3  1 LPRO SC1 3  0.0 

[ constraints ]
1 2 1 0.267 ; BB0_BB1
1 3 1 0.215 ; BB0_SC1
2 3 1 0.381 ; BB1_SC1


; This file was generated using the following command:
; /coarse/chris/python_packages/fast_forward/.venv/bin/ff_inter -f mapped.xtc -s mapped.tpr -i LSER.itp -max-dihedral 5 -plots -itp-only -dists
; 

; Please cite the following papers:
; Kroon, P C; Grunewald, F; Barnoud, J; van Tilburg, M; Souza, P C; Wassenaar, T A; Marrink, S J;  elife 2024; 10.7554/elife.90627.2
; Brasnett, C; Grunewald, L; Wassenaar, T A; Marrink, S J; Grunewald, F;  2025; https://zenodo.org/badge/latestdoi/327071500

[ moleculetype ]
LSER 1

[ atoms ]
1 SQ4p 1 LSER BB0 1  1.0 
2 SQ5n 1 LSER BB1 2 -1.0 
3 TP1  1 LSER SC1 3  0.0 

[ constraints ]
1 2 1 0.283 ; BB0_BB1
1 3 1 0.278 ; BB0_SC1
2 3 1 0.321 ; BB1_SC1


; This file was generated using the following command:
; /coarse/chris/python_packages/fast_forward/.venv/bin/ff_inter -f mapped.xtc -s mapped.tpr -i LTHR.itp -max-dihedral 5 -plots -itp-only -dists
; 

; Please cite the following papers:
; Brasnett, C; Grunewald, L; Wassenaar, T A; Marrink, S J; Grunewald, F;  2025; https://zenodo.org/badge/latestdoi/327071500
; Kroon, P C; Grunewald, F; Barnoud, J; van Tilburg, M; Souza, P C; Wassenaar, T A; Marrink, S J;  elife 2024; 10.7554/elife.90627.2

[ moleculetype ]
LTHR 1

[ atoms ]
1 SQ4p 1 LTHR BB0 1  1.0 
2 SQ5n 1 LTHR BB1 2 -1.0 
3 SP1  1 LTHR SC1 3  0.0 

[ constraints ]
1 2 1 0.284 ; BB0_BB1
1 3 1 0.276 ; BB0_SC1
2 3 1 0.367 ; BB1_SC1


; This file was generated using the following command:
; /coarse/chris/python_packages/fast_forward/.venv/bin/ff_inter -f mapped.xtc -s mapped.tpr -i LTRP.itp -max-dihedral 5 -plots -itp-only -dists
; 

; Please cite the following papers:
; Kroon, P C; Grunewald, F; Barnoud, J; van Tilburg, M; Souza, P C; Wassenaar, T A; Marrink, S J;  elife 2024; 10.7554/elife.90627.2
; Brasnett, C; Grunewald, L; Wassenaar, T A; Marrink, S J; Grunewald, F;  2025; https://zenodo.org/badge/latestdoi/327071500

[ moleculetype ]
LTRP 1

[ atoms ]
1 SQ4p 1 LTRP BB0 1  1.0     
2 SQ5n 1 LTRP BB1 2 -1.0     
3 TC4  1 LTRP SC1 3  0.0 36.0
4 TN6d 1 LTRP SC2 4  0.0 36.0
5 TC5  1 LTRP SC3 5  0.0  0.0
6 TC5  1 LTRP SC4 6  0.0 36.0
7 TC5  1 LTRP SC5 7  0.0 36.0

[ bonds ]
#ifdef FLEXIBLE
3 4 1 0.335 10000
4 7 1 0.412 10000
6 7 1 0.293 10000
3 6 1 0.404 10000
4 6 1 0.470 10000
#endif

[ constraints ]
1 2 1 0.282 ; BB0_BB1
1 3 1 0.26 ; BB0_SC1
2 3 1 0.306 ; BB1_SC1

#ifndef FLEXIBLE
3 4 1 0.335 10000
4 7 1 0.412 10000
6 7 1 0.293 10000
3 6 1 0.404 10000
4 6 1 0.470 10000
#endif

[ angles ]
1 3 4 10 92.95 50.276 ; BB0_SC1_SC2
2 3 4 10 130.002 51.094 ; BB1_SC1_SC2

[ dihedrals ]
7 6 4 3 2 180.0 100.0

[ virtual_sitesn ]
5 2 7 6 4 3

[ exclusions ]
1 2 3 4 5 6 7 
2 3 4 5 6 7 
3 4 5 6 7 
4 5 6 7 
5 6 7 
6 7 


; This file was generated using the following command:
; /Users/chrisbrasnett/virtualenvs/ffwd_env/bin/ff_inter -f mapped.xtc -s mapped.tpr -i LTYR.itp -plots -itp-only -dists
; 

; Please cite the following papers:
; Kroon, P C; Grunewald, F; Barnoud, J; van Tilburg, M; Souza, P C; Wassenaar, T A; Marrink, S J;  elife 2024; 10.7554/elife.90627.2
; Brasnett, C; Grunewald, L; Wassenaar, T A; Marrink, S J; Grunewald, F;  2025; https://zenodo.org/badge/latestdoi/327071500

[ moleculetype ]
LTYR 1

[ atoms ]
1 SQ4p 1 LTYR BB0 1  1.0 48.0
2 SQ5n 1 LTYR BB1 2 -1.0 66.0
3 TC4  1 LTYR SC1 3  0.0  0.0
4 TC5  1 LTYR SC2 4  0.0 48.0
5 TC5  1 LTYR SC3 5  0.0     
6 TN6  1 LTYR SC4 6  0.0     

[ virtual_sites3 ]
3 1 2 4 1 0.387 0.432 ; SC1_BB0_BB1_SC2

[ bonds ]
1 4 1 0.429 2174.286 ; BB0_SC2
2 4 1 0.57 1574.454 ; BB1_SC2
2 5 1 0.576 1669.471 ; BB1_SC5

#ifdef FLEXIBLE
4 6 1 0.285 10000
5 6 1 0.285 10000
4 5 1 0.300 10000
#endif

[ constraints ]
1 2 1 0.283 ; BB0_BB1

#ifndef FLEXIBLE
4 6 1 0.285 10000
5 6 1 0.285 10000
4 5 1 0.300 10000
#endif

[ angles ]
1 4 5 10 67.267 58.946 ; BB0_SC2_SC3
2 4 5 10 73.512 44.548 ; BB1_SC2_SC3

[ dihedrals ]
6 4 5 3 2 180.0 100.0

[ exclusions ]
1 2 3 4 5 6 
2 3 4 5 6 
3 4 5 6 
4 5 6 
5 6 


; This file was generated using the following command:
; /coarse/chris/python_packages/fast_forward/.venv/bin/ff_inter -f mapped.xtc -s mapped.tpr -i LVAL.itp -max-dihedral 10 -plots -itp-only -dists
; 

; Please cite the following papers:
; Brasnett, C; Grunewald, L; Wassenaar, T A; Marrink, S J; Grunewald, F;  2025; https://zenodo.org/badge/latestdoi/327071500
; Kroon, P C; Grunewald, F; Barnoud, J; van Tilburg, M; Souza, P C; Wassenaar, T A; Marrink, S J;  elife 2024; 10.7554/elife.90627.2

[ moleculetype ]
LVAL 1

[ atoms ]
1 SQ4p 1 LVAL BB0 1  1.0 
2 SQ5n 1 LVAL BB1 2 -1.0 
3 SC3  1 LVAL SC1 3  0.0 

[ constraints ]
1 2 1 0.283 ; BB0_BB1
1 3 1 0.265 ; BB0_SC1
2 3 1 0.358 ; BB1_SC1


;
; Topology prepared automatically using PyCGTOOL
; James Graham <J.A.Graham@soton.ac.uk> 2016
; University of Southampton
; https://github.com/jag1g13/pycgtool
;

[ moleculetype ]
M6P     1

[ atoms ]
   1 SP4r    1 M6P  MAN1    1    0.000    54.0
   2 SP4r    1 M6P  MAN2    2    0.000    54.0
   3 SN4ar   1 M6P  MAN3    3    0.000    54.0
   4 D       1 M6P  P1      4   -2.000
   5 TC4     1 M6P  MAN4    5    0.000    0

[ bonds ]
   1    2    1      0.367  25000 ; MAN1_MAN2
   1    3    1      0.413  15000 ; MAN1_MAN3
   2    3    1      0.351  20000 ; MAN2_MAN3

#ifdef FLEXIBLE
   3    4    1      0.329  10000 ; MAN3_P1
#endif

[ angles ]
   2    1    4    2     49    168 ; MAN2_MAN1_P1
   3    1    4    2     26    867 ; MAN1_MAN3_P1

[ constraints ]
#ifndef FLEXIBLE
   3    4    1      0.329 ; MAN3_P1
#endif

[ virtual_sitesn ]
5 1 1 2 3

[ exclusions ]
5 1 2 3 4
; This file was generated using the following command:
; /coarse/chris/python_packages/fast_forward/.venv/bin/ff_inter -f mapped.xtc -s mapped.tpr -i MALA.itp -plots -dists
; 

; Please cite the following papers:
; Brasnett, C; Grunewald, L; Wassenaar, T A; Marrink, S J; Grunewald, F;  2025; https://zenodo.org/badge/latestdoi/327071500
; Kroon, P C; Grunewald, F; Barnoud, J; van Tilburg, M; Souza, P C; Wassenaar, T A; Marrink, S J;  elife 2024; 10.7554/elife.90627.2

[ moleculetype ]
MALA 1

[ atoms ]
1 SQ5n 1 MALA CAC1 1 -1.0 54.0
2 TC5  1 MALA ALC1 2  0.0 54.0
3 SQ5n 1 MALA CAC2 3 -1.0 54.0

[ bonds ]
1 2 1 0.249 7500 ; CAC1_ALC1
2 3 1 0.231 7500 ; ALC1_CAC2

[ angles ]
;1 2 3 10 146.873 50 ; CAC1_ALC1_CAC2
1 2 3 10 125 30 ; CAC1_ALC1_CAC2


;
; Topology prepared automatically using PyCGTOOL
; James Graham <J.A.Graham@soton.ac.uk> 2016
; University of Southampton
; https://github.com/jag1g13/pycgtool
;

[ moleculetype ]
MANA    1

[ atoms ]
   1 SN6     1 MANA MAN1    1    0.000    54.0
   2 SP4r    1 MANA MAN2    2    0.000    54.0
   3 SP1r    1 MANA MAN3    3    0.000    54.0
   4 P3d     1 MANA AMD1    4    0.000
   5 TC4     1 MANA MAN4    5    0.000    0

[ bonds ]
   2    3    1      0.381  13734 ; MAN2_MAN3
   1    4    1      0.366   4945 ; MAN1_AMD1
   1    2    1      0.390  20000 ; MAN1_MAN2
   1    3    1      0.446  15000 ; MAN1_MAN3

[ angles ]
   2    1    4    2     76    150 ; MAN2_MAN1_AMD1
   3    1    4    2     96    222 ; MAN3_MAN1_AMD1

[ virtual_sitesn ]
5 1 1 2 3

[ exclusions ]
5 1 2 3 4
; This file was generated using the following command:
; /coarse/chris/python_packages/fast_forward/.venv/bin/ff_inter -f mapped.xtc -s mapped.tpr -i MCIT.itp -plots -dists -max-dihedral 5
; 

; Please cite the following papers:
; Kroon, P C; Grunewald, F; Barnoud, J; van Tilburg, M; Souza, P C; Wassenaar, T A; Marrink, S J;  elife 2024; 10.7554/elife.90627.2
; Brasnett, C; Grunewald, L; Wassenaar, T A; Marrink, S J; Grunewald, F;  2025; https://zenodo.org/badge/latestdoi/327071500

[ moleculetype ]
MCIT 1

[ atoms ]
1 SQ5n 1 MCIT CAC1 1 -1.0 
2 TC2  1 MCIT C1   2  0.0 
3 SP1  1 MCIT ALC1 3  0.0 
4 SQ5n 1 MCIT CAC2 4 -1.0 
5 SQ5n 1 MCIT CAC3 5 -1.0 

[ bonds ]
#ifdef FLEXIBLE
1 2 1 0.251 10000 ; CAC1_C1
2 3 1 0.292 10000 ; C1_ALC1
3 4 1 0.248 10000 ; ALC1_CAC2
3 5 1 0.277 10000 ; ALC1_CAC3
#endif

[ constraints ]
#ifndef FLEXIBLE
1 2 1 0.251 ; CAC1_C1
2 3 1 0.292 ; C1_ALC1
3 4 1 0.248 ; ALC1_CAC2
3 5 1 0.277 ; ALC1_CAC3
#endif

[ angles ]
1 2 3 10 57.586 600 ; CAC1_C1_ALC1
2 3 4 10 150.683 150 ; C1_ALC1_CAC2
2 3 5 10 65.925 600 ; C1_ALC1_CAC3
4 3 5 10 85.289 150 ; CAC2_ALC1_CAC3

[ dihedrals ]
1 2 3 4 2 157.334 75.322 ; CAC1_C1_ALC1_CAC2
1 2 3 5 2 164.324 213.27 ; CAC1_C1_ALC1_CAC3

[ exclusions ]
1 2 3 4 5
2 3 4 5
3 4 5
4 5

;
; Topology prepared automatically using PyCGTOOL
; James Graham <J.A.Graham@soton.ac.uk> 2016
; University of Southampton
; https://github.com/jag1g13/pycgtool
;

[ moleculetype ]
MN6P    1

[ atoms ]
   1 SN6     1 MN6P MAN1    1    0.000    54.0
   2 SP4r    1 MN6P MAN2    2    0.000    54.0
   3 SN4ar   1 MN6P MAN3    3    0.000    54.0
   4 P3d     1 MN6P AMD1    4    0.000
   5 D       1 MN6P P1      5   -2.000
   6 TC4     1 MN6P MAN4    6    0.000    0

[ bonds ]
   1    4    1      0.363   5225 ; MAN1_AMD1
   1    2    1      0.392  25000 ; MAN1_MAN2
   1    3    1      0.405  20000 ; MAN1_MAN3
   2    3    1      0.354  25000 ; MAN2_MAN3

#ifdef FLEXIBLE
   3    5    1      0.329  10000; MAN3_P1
#endif

[ angles ]
   1    3    5    2    130    300 ; MAN1_MAN3_P1
   2    3    5    2    100     50 ; MAN2_MAN3_P1
   2    1    4    2     80    175 ; MAN2_MAN1_AMD1
   3    1    4    2    100    232 ; MAN3_MAN1_AMD1

[ dihedrals ]
   5    3    1    4    1    175    2    1 ; P1_MAN3_MAN1_AMD1

[ constraints ]
#ifndef FLEXIBLE
   3    5    1      0.329 ; MAN3_P1
#endif

[ virtual_sitesn ]
6 1 1 2 3

[ exclusions ]
6 1 2 3 4 5
; This file was generated using the following command:
; /coarse/chris/python_packages/fast_forward/.venv/bin/ff_inter -f mapped.xtc -s mapped.tpr -i MTA.itp -max-dihedral 5 -plots -itp-only -dists
; 

; Please cite the following papers:
; Kroon, P C; Grunewald, F; Barnoud, J; van Tilburg, M; Souza, P C; Wassenaar, T A; Marrink, S J;  elife 2024; 10.7554/elife.90627.2
; Brasnett, C; Grunewald, L; Wassenaar, T A; Marrink, S J; Grunewald, F;  2025; https://zenodo.org/badge/latestdoi/327071500

[ moleculetype ]
MTA 1

[ atoms ]
 1 SN1   1 MTA ADE1  1 0.0 45.0
 2 TN3a  1 MTA ADE2  2 0.0 45.0
 3 TN5a  1 MTA ADE3  3 0.0  0.0
 4 TP1d  1 MTA ADE4  4 0.0 45.0
 5 TN3a  1 MTA ADE5  5 0.0 45.0
 6 TC6   1 MTA ADE6  6 0.0  0.0
 7 SN6   1 MTA RIB1  7 0.0 54.0
 8 TP1   1 MTA RIB2  8 0.0 54.0
 9 SN4ar 1 MTA RIB3  9 0.0 54.0
10 TC4   1 MTA RIB4 10 0.0  0.0
11 TC6   1 MTA SUL1 11 0.0     

[ bonds ]
 1  7 b_ADE1_RIB1
 7  8 b_RIB1_RIB2
 9 11 1 0.332 4519.514 ; RIB3_SUL1

#ifdef FLEXIBLE
 7  9 b_RIB1_RIB3
 8  9 b_RIB2_RIB3
#endif

[ constraints ]
 1  2 1 0.268
 1  5 1 0.287
 4  5 1 0.316
 2  5 1 0.353
 2  4 1 0.417

#ifndef FLEXIBLE
 7  9 c_RIB1_RIB3
 8  9 c_RIB2_RIB3
#endif

[ angles ]
 2  1  7 a_ADE2_ADE1_RIB1
 1  7  8 a_ADE1_RIB1_RIB2
 1  7  9 a_ADE1_RIB1_RIB3
 7  9 11 10 123.493 32.281 ; RIB1_RIB3_SUL1

[ virtual_sitesn ]
 6 2  2  5
10 1  7  8  9

[ dihedrals ]
 1  7  8  9 d_ADE1_RIB1_RIB2_RIB3
 1  2  5  4 d_ADE1_ADE2_ADE5_ADE4
 2  1  7  9 d_ADE2_ADE1_RIB1_RIB3_1
 2  1  7  9 d_ADE2_ADE1_RIB1_RIB3_2
 2  1  7  9 d_ADE2_ADE1_RIB1_RIB3_3
 2  1  7  9 d_ADE2_ADE1_RIB1_RIB3_4
 2  1  7  9 d_ADE2_ADE1_RIB1_RIB3_5
 1  7  9 11 2 -66.52 5.857 ; ADE1_RIB1_RIB3_SUL1

[ virtual_sites3 ]
 3  5  2  4 2 0.52 0.373

[ exclusions ]
 1  2  3  4  5  6 
 2  3  4  5  6 
 3  4  5  6 
 4  5  6 
 5  6 
10  7  8  9 
 2  1  7  8  9 
 1  7  8  9 


; This file was generated using the following command:
; /coarse/chris/python_packages/fast_forward/.venv/bin/ff_inter -f mapped.xtc -s mapped.tpr -i NADH.itp -max-dihedral 5 -plots -itp-only -dists
; 

; Please cite the following papers:
; Brasnett, C; Grunewald, L; Wassenaar, T A; Marrink, S J; Grunewald, F;  2025; https://zenodo.org/badge/latestdoi/327071500
; Kroon, P C; Grunewald, F; Barnoud, J; van Tilburg, M; Souza, P C; Wassenaar, T A; Marrink, S J;  elife 2024; 10.7554/elife.90627.2

[ moleculetype ]
NADH 1

[ atoms ]
 1 SN1   1 NADH ADE1  1  0.0 45.0
 2 TN3a  1 NADH ADE2  2  0.0 45.0
 3 TN5a  1 NADH ADE3  3  0.0  0.0
 4 TP1d  1 NADH ADE4  4  0.0 45.0
 5 TN3a  1 NADH ADE5  5  0.0 45.0
 6 TC6   1 NADH ADE6  6  0.0  0.0
 7 TC3   1 NADH RIB1  7  0.0 54.0
 8 TP1   1 NADH RIB2  8  0.0 54.0
 9 SN4ar 1 NADH RIB3  9  0.0 54.0
10 TC4   1 NADH RIB4 10  0.0  0.0
11 Q5n   1 NADH P1   11 -1.0 72.0
12 Q5n   1 NADH P2   12 -1.0 72.0
13 SN4ar 1 NADH RIB5 13  0.0 54.0
14 TP1   1 NADH RIB6 14  0.0 54.0
15 SN6   1 NADH RIB7 15  0.0 54.0
16 TC4   1 NADH RIB8 16  0.0  0.0
17 TN6   1 NADH ARO1 17  0.0 48.0
18 TC5   1 NADH ARO2 18  0.0 48.0
19 TC5   1 NADH ARO3 19  0.0  0.0 
20 SP2   1 NADH AMD1 10  0.0 66.0

[ bonds ]
 1  7 b_ADE1_RIB1
 7  8 b_RIB1_RIB2
14 15 b_RIB1_RIB2

#ifdef FLEXIBLE
 7  9 b_RIB1_RIB3
13 15 b_RIB1_RIB3 ; same in reverse
 8  9 b_RIB2_RIB3
13 14 b_RIB2_RIB3 ; same in reverse
 9 11 b_RIB3_P1
12 13 b_RIB3_P1 ; same in reverse
11 12 b_P1_P2

15 17 b_RIB7_ARO1
17 18 b_ARO1_ARO2
17 20 b_ARO1_AMD1
18 20 b_ARO2_AMD1
#endif

[ constraints ]
 1  2 1 0.268
 1  5 1 0.287
 4  5 1 0.316
 2  5 1 0.353
 2  4 1 0.417

#ifndef FLEXIBLE
 7  9 c_RIB1_RIB3
13 15 c_RIB1_RIB3 ; same in reverse
 8  9 c_RIB2_RIB3
13 14 c_RIB2_RIB3 ; same in reverse
 9 11 c_RIB3_P1
12 13 c_RIB3_P1 ; same in reverse
11 12 c_P1_P2

15 17 c_RIB7_ARO1
17 18 c_ARO1_ARO2
17 20 c_ARO1_AMD1
18 20 c_ARO2_AMD1
#endif

[ angles ]
 2  1  7 a_ADE2_ADE1_RIB1
 1  7  8 a_ADE1_RIB1_RIB2
 1  7  9 a_ADE1_RIB1_RIB3
 7  9 11 a_RIB1_RIB3_P1
 9 11 12 a_RIB3_P1_P2
11 12 13 a_RIB3_P1_P2 ; same in reverse
12 13 15 a_RIB1_RIB3_P1 ; same in reverse
13 15 17 a_RIB5_RIB7_ARO1
15 17 20 a_RIB7_ARO1_AMD1

[ virtual_sitesn ]
 6 2  2  5
10 1  7  8  9
16 1 13 14 15

[ dihedrals ]
 1  2  5  4 d_ADE1_ADE2_ADE5_ADE4
 1  7  9 11 d_ADE1_RIB1_RIB3_P1
 2  1  7  9 d_ADE2_ADE1_RIB1_RIB3_1
 2  1  7  9 d_ADE2_ADE1_RIB1_RIB3_2
 2  1  7  9 d_ADE2_ADE1_RIB1_RIB3_3
 2  1  7  9 d_ADE2_ADE1_RIB1_RIB3_4
 2  1  7  9 d_ADE2_ADE1_RIB1_RIB3_5
 7  9 11 12 d_RIB1_RIB3_P1_P2
 1  7  8  9 d_ADE1_RIB1_RIB2_RIB3 
 
 9 11 12 13 d_RIB3_P1_P2_RIB5
11 12 13 15 d_P1_P2_RIB5_RIB7
12 13 15 17 d_P2_RIB5_RIB7_ARO1
13 15 17 20 d_RIB5_RIB7_ARO1_AMD1


[ virtual_sites3 ]
 3  5  2  4 2 0.52 0.373
19 17 18 20 2 0.658 0.182 ; ARO3_ARO1_ARO2_AMD1

[ exclusions ]
 1  2  3  4  5  6 
 2  3  4  5  6 
 3  4  5  6 
 4  5  6 
 5  6 
10  7  8  9 
16 13 14 15
19 17 18 20


; This file was generated using the following command:
; /coarse/chris/python_packages/fast_forward/.venv/bin/ff_inter -f mapped.xtc -s mapped.tpr -i NAD.itp -max-dihedral 5 -plots -itp-only -dists
; 

; Please cite the following papers:
; Kroon, P C; Grunewald, F; Barnoud, J; van Tilburg, M; Souza, P C; Wassenaar, T A; Marrink, S J;  elife 2024; 10.7554/elife.90627.2
; Brasnett, C; Grunewald, L; Wassenaar, T A; Marrink, S J; Grunewald, F;  2025; https://zenodo.org/badge/latestdoi/327071500

[ moleculetype ]
NAD 1

[ atoms ]
 1 SN1   1 NAD ADE1  1  0.0 45.0
 2 TN3a  1 NAD ADE2  2  0.0 45.0
 3 TN5a  1 NAD ADE3  3  0.0  0.0
 4 TP1d  1 NAD ADE4  4  0.0 45.0
 5 TN3a  1 NAD ADE5  5  0.0 45.0
 6 TC6   1 NAD ADE6  6  0.0  0.0
 7 TC3   1 NAD RIB1  7  0.0 54.0
 8 TP1   1 NAD RIB2  8  0.0 54.0
 9 SN4ar 1 NAD RIB3  9  0.0 54.0
10 TC4   1 NAD RIB4 10  0.0  0.0
11 Q5n   1 NAD P1   11 -1.0 72.0
12 Q5n   1 NAD P2   12 -1.0 72.0
13 SN4ar 1 NAD RIB5 13  0.0 54.0
14 TP1   1 NAD RIB6 14  0.0 54.0
15 SN6   1 NAD RIB7 15  0.0 54.0
16 TC4   1 NAD RIB8 16  0.0  0.0
17 TQ2   1 NAD ARO1 17  1.0 48.0
18 TC5   1 NAD ARO2 18  0.0 48.0
19 TC5   1 NAD ARO3 19  0.0  0.0 
20 SP2   1 NAD AMD1 20  0.0 66.0   

[ bonds ]
 1  7 b_ADE1_RIB1
 7  8 b_RIB1_RIB2
14 15 b_RIB1_RIB2

#ifdef FLEXIBLE
 7  9 b_RIB1_RIB3
13 15 b_RIB1_RIB3 ; same in reverse
 8  9 b_RIB2_RIB3
13 14 b_RIB2_RIB3 ; same in reverse
 9 11 b_RIB3_P1
12 13 b_RIB3_P1 ; same in reverse
11 12 b_P1_P2

15 17 b_RIB7_ARO1
17 18 b_ARO1_ARO2
17 20 b_ARO1_AMD1
18 20 b_ARO2_AMD1
#endif

[ constraints ]
 1  2 1 0.268
 1  5 1 0.287
 4  5 1 0.316
 2  5 1 0.353
 2  4 1 0.417

#ifndef FLEXIBLE
 7  9 c_RIB1_RIB3
13 15 c_RIB1_RIB3 ; same in reverse
 8  9 c_RIB2_RIB3
13 14 c_RIB2_RIB3 ; same in reverse
 9 11 c_RIB3_P1
12 13 c_RIB3_P1 ; same in reverse
11 12 c_P1_P2

15 17 c_RIB7_ARO1
17 18 c_ARO1_ARO2
17 20 c_ARO1_AMD1
18 20 c_ARO2_AMD1
#endif

[ angles ]
 2  1  7 a_ADE2_ADE1_RIB1
 1  7  8 a_ADE1_RIB1_RIB2
 1  7  9 a_ADE1_RIB1_RIB3
 7  9 11 a_RIB1_RIB3_P1
 9 11 12 a_RIB3_P1_P2
11 12 13 a_RIB3_P1_P2 ; same in reverse
12 13 15 a_RIB1_RIB3_P1 ; same in reverse
13 15 17 a_RIB5_RIB7_ARO1
15 17 20 a_RIB7_ARO1_AMD1

[ virtual_sitesn ]
 6 2  2  5
10 1  7  8  9
16 1 13 14 15

[ dihedrals ]
 1  2  5  4 d_ADE1_ADE2_ADE5_ADE4
 1  7  9 11 d_ADE1_RIB1_RIB3_P1
 2  1  7  9 d_ADE2_ADE1_RIB1_RIB3_1
 2  1  7  9 d_ADE2_ADE1_RIB1_RIB3_2
 2  1  7  9 d_ADE2_ADE1_RIB1_RIB3_3
 2  1  7  9 d_ADE2_ADE1_RIB1_RIB3_4
 2  1  7  9 d_ADE2_ADE1_RIB1_RIB3_5
 7  9 11 12 d_RIB1_RIB3_P1_P2
 1  7  8  9 d_ADE1_RIB1_RIB2_RIB3 
 
 9 11 12 13 d_RIB3_P1_P2_RIB5
11 12 13 15 d_P1_P2_RIB5_RIB7
12 13 15 17 d_P2_RIB5_RIB7_ARO1
13 15 17 20 d_RIB5_RIB7_ARO1_AMD1


[ virtual_sites3 ]
 3  5  2  4 2 0.52 0.373
19 17 18 20 2 0.658 0.182 ; ARO3_ARO1_ARO2_AMD1

[ exclusions ]
 1  2  3  4  5  6 
 2  3  4  5  6 
 3  4  5  6 
 4  5  6 
 5  6 
10  7  8  9 
16 13 14 15
19 17 18 20

; This file was generated using the following command:
; /coarse/chris/python_packages/fast_forward/.venv/bin/ff_inter -f mapped.xtc -s mapped.tpr -i NADPH.itp -max-dihedral 5 -plots -itp-only -dists
; 

; Please cite the following papers:
; Brasnett, C; Grunewald, L; Wassenaar, T A; Marrink, S J; Grunewald, F;  2025; https://zenodo.org/badge/latestdoi/327071500
; Kroon, P C; Grunewald, F; Barnoud, J; van Tilburg, M; Souza, P C; Wassenaar, T A; Marrink, S J;  elife 2024; 10.7554/elife.90627.2

[ moleculetype ]
NADPH 1

[ atoms ]
 1 SN1   1 NADPH ADE1  1  0.0 45.0
 2 TN3a  1 NADPH ADE2  2  0.0 45.0
 3 TN5a  1 NADPH ADE3  3  0.0  0.0
 4 TP1d  1 NADPH ADE4  4  0.0 45.0
 5 TN3a  1 NADPH ADE5  5  0.0 45.0
 6 TC6   1 NADPH ADE6  6  0.0  0.0
 7 TC3   1 NADPH RIB1  7  0.0 78.0
 8 TP1   1 NADPH RIB2  8  0.0 78.0
 9 SN4ar 1 NADPH RIB3  9  0.0 78.0
10 TC4   1 NADPH RIB4 10  0.0  0.0
11 Q5n   1 NADPH P1   11 -1.0 72.0
12 Q5n   1 NADPH P2   12 -1.0 72.0
13 D     1 NADPH P4   13 -2.0  0.0
14 SN4ar 1 NADPH RIB5 14  0.0 54.0
15 TP1   1 NADPH RIB6 15  0.0 54.0
16 SN6   1 NADPH RIB7 16  0.0 54.0
17 TC4   1 NADPH RIB8 17  0.0  0.0
18 TN6   1 NADPH ARO1 18  0.0 48.0 
19 TC5   1 NADPH ARO2 19  0.0 48.0
20 TC5   1 NADPH ARO3 20  0.0  0.0
21 SP2   1 NADPH AMD1 21  0.0 66.0

[ bonds ]
 1  7 b_ADE1_RIB1
 7  8 b_RIB1_RIB2
15 16 b_RIB1_RIB2

#ifdef FLEXIBLE
 7  9 b_RIB1_RIB3
14 16 b_RIB1_RIB3 ; same in reverse
 8  9 b_RIB2_RIB3
14 15 b_RIB2_RIB3 ; same in reverse
 9 11 b_RIB3_P1
12 14 b_RIB3_P1 ; same in reverse
11 12 b_P1_P2

16 18 b_RIB7_ARO1
18 19 b_ARO1_ARO2
18 21 b_ARO1_AMD1
19 21 b_ARO2_AMD1
#endif

[ constraints ]
 1  2 1 0.268
 1  5 1 0.287
 4  5 1 0.316
 2  5 1 0.353
 2  4 1 0.417

#ifndef FLEXIBLE
 7  9 c_RIB1_RIB3
14 16 c_RIB1_RIB3 ; same in reverse
 8  9 c_RIB2_RIB3
14 15 c_RIB2_RIB3 ; same in reverse
 9 11 c_RIB3_P1
12 14 c_RIB3_P1 ; same in reverse
11 12 c_P1_P2

16 18 c_RIB7_ARO1
18 19 c_ARO1_ARO2
18 21 c_ARO1_AMD1
19 21 c_ARO2_AMD1
#endif

[ angles ]
 2  1  7 a_ADE2_ADE1_RIB1
 1  7  8 a_ADE1_RIB1_RIB2
 1  7  9 a_ADE1_RIB1_RIB3
 7  9 11 a_RIB1_RIB3_P1
 9 11 12 a_RIB3_P1_P2

11 12 14 a_RIB3_P1_P2 ; same in reverse
12 14 16 a_RIB1_RIB3_P1 ; same in reverse

14 16 18 a_RIB5_RIB7_ARO1
16 18 21 a_RIB7_ARO1_AMD1

[ virtual_sitesn ]
 6 2  2  5
10 1  7  8  9
17 1 14 15 16

[ dihedrals ]
 1  2  5  4 d_ADE1_ADE2_ADE5_ADE4
 1  7  9 11 d_ADE1_RIB1_RIB3_P1
 2  1  7  9 d_ADE2_ADE1_RIB1_RIB3_1
 2  1  7  9 d_ADE2_ADE1_RIB1_RIB3_2
 2  1  7  9 d_ADE2_ADE1_RIB1_RIB3_3
 2  1  7  9 d_ADE2_ADE1_RIB1_RIB3_4
 2  1  7  9 d_ADE2_ADE1_RIB1_RIB3_5
 7  9 11 12 d_RIB1_RIB3_P1_P2
 1  7  8  9 d_ADE1_RIB1_RIB2_RIB3

 9 11 12 14 d_RIB3_P1_P2_RIB5
11 12 14 16 d_P1_P2_RIB5_RIB7
12 14 16 18 d_P2_RIB5_RIB7_ARO1
14 16 18 21 d_RIB5_RIB7_ARO1_AMD1

[ virtual_sites3 ]
 3  5  2  4 2 0.52 0.373
13  7  8  9 4 1.004 -0.851 0.33 ; P4_RIB1_RIB2_RIB3
20 18 19 21 2 0.658 0.182 ; ARO3_ARO1_ARO2_AMD1

[ exclusions ]
 1  2  3  4  5  6 
 2  3  4  5  6 
 3  4  5  6 
 4  5  6 
 5  6 
10  7  8  9 
13  7  8  9
17 14 15 16
20 18 19 21

; This file was generated using the following command:
; /coarse/chris/python_packages/fast_forward/.venv/bin/ff_inter -f mapped.xtc -s mapped.tpr -i NADP.itp -max-dihedral 5 -plots -itp-only -dists
; 

; Please cite the following papers:
; Kroon, P C; Grunewald, F; Barnoud, J; van Tilburg, M; Souza, P C; Wassenaar, T A; Marrink, S J;  elife 2024; 10.7554/elife.90627.2
; Brasnett, C; Grunewald, L; Wassenaar, T A; Marrink, S J; Grunewald, F;  2025; https://zenodo.org/badge/latestdoi/327071500

[ moleculetype ]
NADP 1

[ atoms ]
 1 SN1   1 NADP ADE1  1  0.0 45.0
 2 TN3a  1 NADP ADE2  2  0.0 45.0
 3 TN5a  1 NADP ADE3  3  0.0  0.0
 4 TP1d  1 NADP ADE4  4  0.0 45.0
 5 TN3a  1 NADP ADE5  5  0.0 45.0
 6 TC6   1 NADP ADE6  6  0.0  0.0
 7 TC3   1 NADP RIB1  7  0.0 78.0
 8 TP1   1 NADP RIB2  8  0.0 78.0
 9 SN4ar 1 NADP RIB3  9  0.0 78.0
10 TC4   1 NADP RIB4 10  0.0  0.0
11 Q5n   1 NADP P1   11 -1.0 72.0
12 Q5n   1 NADP P2   12 -1.0 72.0
13 D     1 NADP P4   13 -2.0  0.0
14 SN4ar 1 NADP RIB5 14  0.0 54.0
15 TP1   1 NADP RIB6 15  0.0 54.0
16 SN6   1 NADP RIB7 16  0.0 54.0
17 TC4   1 NADP RIB8 17  0.0  0.0
18 TQ2   1 NADP ARO1 18  1.0 48.0 
19 TC5   1 NADP ARO2 19  0.0 48.0
20 TC5   1 NADP ARO3 20  0.0  0.0
21 SP2   1 NADP AMD1 21  0.0 66.0

[ bonds ]
 1  7 b_ADE1_RIB1
 7  8 b_RIB1_RIB2
15 16 b_RIB1_RIB2

#ifdef FLEXIBLE
 7  9 b_RIB1_RIB3
14 16 b_RIB1_RIB3 ; same in reverse
 8  9 b_RIB2_RIB3
14 15 b_RIB2_RIB3 ; same in reverse
 9 11 b_RIB3_P1
12 14 b_RIB3_P1 ; same in reverse
11 12 b_P1_P2

16 18 b_RIB7_ARO1
18 19 b_ARO1_ARO2
18 21 b_ARO1_AMD1
19 21 b_ARO2_AMD1
#endif

[ constraints ]
 1  2 1 0.268
 1  5 1 0.287
 4  5 1 0.316
 2  5 1 0.353
 2  4 1 0.417

#ifndef FLEXIBLE
 7  9 c_RIB1_RIB3
14 16 c_RIB1_RIB3 ; same in reverse
 8  9 c_RIB2_RIB3
14 15 c_RIB2_RIB3 ; same in reverse
 9 11 c_RIB3_P1
12 14 c_RIB3_P1 ; same in reverse
11 12 c_P1_P2

16 18 c_RIB7_ARO1
18 19 c_ARO1_ARO2
18 21 c_ARO1_AMD1
19 21 c_ARO2_AMD1
#endif

[ angles ]
 2  1  7 a_ADE2_ADE1_RIB1
 1  7  8 a_ADE1_RIB1_RIB2
 1  7  9 a_ADE1_RIB1_RIB3
 7  9 11 a_RIB1_RIB3_P1
 9 11 12 a_RIB3_P1_P2

11 12 14 a_RIB3_P1_P2 ; same in reverse
12 14 16 a_RIB1_RIB3_P1 ; same in reverse

14 16 18 a_RIB5_RIB7_ARO1
16 18 21 a_RIB7_ARO1_AMD1

[ virtual_sitesn ]
 6 2  2  5
10 1  7  8  9
17 1 14 15 16

[ dihedrals ]
 1  2  5  4 d_ADE1_ADE2_ADE5_ADE4
 1  7  9 11 d_ADE1_RIB1_RIB3_P1
 2  1  7  9 d_ADE2_ADE1_RIB1_RIB3_1
 2  1  7  9 d_ADE2_ADE1_RIB1_RIB3_2
 2  1  7  9 d_ADE2_ADE1_RIB1_RIB3_3
 2  1  7  9 d_ADE2_ADE1_RIB1_RIB3_4
 2  1  7  9 d_ADE2_ADE1_RIB1_RIB3_5
 7  9 11 12 d_RIB1_RIB3_P1_P2
 1  7  8  9 d_ADE1_RIB1_RIB2_RIB3

 9 11 12 14 d_RIB3_P1_P2_RIB5
11 12 14 16 d_P1_P2_RIB5_RIB7
12 14 16 18 d_P2_RIB5_RIB7_ARO1
14 16 18 21 d_RIB5_RIB7_ARO1_AMD1

[ virtual_sites3 ]
 3  5  2  4 2 0.52 0.373
13  7  8  9 4 1.004 -0.851 0.33 ; P4_RIB1_RIB2_RIB3
20 18 19 21 2 0.658 0.182 ; ARO3_ARO1_ARO2_AMD1

[ exclusions ]
 1  2  3  4  5  6 
 2  3  4  5  6 
 3  4  5  6 
 4  5  6 
 5  6 
10  7  8  9 
13  7  8  9
17 14 15 16
20 18 19 21

; This file was generated using the following command:
; /coarse/chris/python_packages/fast_forward/.venv/bin/ff_inter -f ../mapped.xtc -s ../mapped.tpr -i NCA.itp -plots -dists
; 

; Please cite the following papers:
; Brasnett, C; Grunewald, L; Wassenaar, T A; Marrink, S J; Grunewald, F;  2025; https://zenodo.org/badge/latestdoi/327071500
; Kroon, P C; Grunewald, F; Barnoud, J; van Tilburg, M; Souza, P C; Wassenaar, T A; Marrink, S J;  elife 2024; 10.7554/elife.90627.2

[ moleculetype ]
NCA 1

[ atoms ]
1 SP5  1 NCA AMD1 1 0.0 54.0
2 TC5  1 NCA ARO1 2 0.0 36.0
3 TC5  1 NCA ARO2 3 0.0 36.0
4 TN6a 1 NCA ARO3 4 0.0 36.0

[ bonds ]
#ifdef FLEXIBLE
1 2 1 0.254 10000 ; AMD1_ARO1
2 3 1 0.199 10000 ; ARO1_ARO2
3 4 1 0.204 10000 ; ARO2_ARO3
4 2 1 0.183 10000 ; ARO3_ARO1
#endif

[ constraints ]
#ifndef FLEXIBLE
1 2 1 0.254 ; AMD1_ARO1
2 3 1 0.199 ; ARO1_ARO2
3 4 1 0.204 ; ARO2_ARO3
4 2 1 0.183 ; ARO3_ARO1
#endif

[ angles ]
1 2 3 10 135.573 200 ; AMD1_ARO1_ARO2

[ dihedrals ]
1 2 3 4 2 -179.622 20 ; AMD1_ARO1_ARO2_ARO3


; This file was generated using the following command:
; ff_inter -f mapped.xtc -s mapped.gro -i NIC.itp -dists -plots
;

; Please cite the following papers:
; Brasnett, C; Grunewald, L; Wassenaar, T A; Marrink, S J; Grunewald, F;  2025; https://zenodo.org/badge/latestdoi/327071500
; Kroon, P C; Grunewald, F; Barnoud, J; van Tilburg, M; Souza, P C; Wassenaar, T A; Marrink, S J;  elife 2024; 10.7554/elife.90627.2

[ moleculetype ]
NIC 1

[ atoms ]
1 SQ5n 1 NIC CAC1 1 -1.0 66.0
2 TC5  1 NIC ARO1 2  0.0  0.0
3 TC5  1 NIC ARO2 3  0.0 48.0
4 TN6a 1 NIC ARO3 4  0.0 48.0

[ virtual_sites3 ]
2 1 3 4 1 0.29 0.294 ; ARO1

[ bonds ]
#ifdef FLEXIBLE
1 3 1 0.41 10000 ; CAC1_ARO2
1 4 1 0.392 10000 ; CAC1_ARO3
3 4 1 0.204 10000 ; ARO2_ARO3
#endif

[ constraints ]
#ifndef FLEXIBLE
1 3 1 0.41 ; CAC1_ARO2
1 4 1 0.392 ; CAC1_ARO3
3 4 1 0.204 ; ARO2_ARO3
#endif

[ exclusions ]
1 2 3 4
2 1 3 4
3 1 2 4
4 1 2 3


;
; Topology prepared automatically using PyCGTOOL
; James Graham <J.A.Graham@soton.ac.uk> 2016
; University of Southampton
; https://github.com/jag1g13/pycgtool
;

[ moleculetype ]
NICR    1

[ atoms ]
   1 SQ5n    1 NICR CAC1    1   -1.000    
   2 TQ2     1 NICR ARO1    2    1.000
   3 TC5     1 NICR ARO2    3    0.000
   4 TC5     1 NICR ARO3    4    0.000
   5 SN6     1 NICR RIB1    5    0.000    54.0
   6 TP1     1 NICR RIB2    6    0.000    36.0
   7 SN4ar   1 NICR RIB3    7    0.000    54.0
   8 D       1 NICR P1      8   -2.000
   9 TC4     1 NICR RIB4    9    0.000    0

[ bonds ]
   5    6    1      0.232  14270 ; RIB1_RIB2
   2    5    1      0.258  50000 ; ARO1_RIB1
   6    7    1      0.275  25000 ; RIB2_RIB3

#ifdef FLEXIBLE
   1    4    1      0.226  10000 ; CAC1_ARO3
   2    3    1      0.204  10000 ; ARO1_ARO2
   2    4    1      0.183  10000 ; ARO1_ARO3
   3    4    1      0.200  10000 ; ARO2_ARO3
   5    7    1      0.337  10000 ; RIB1_RIB3
   7    8    1      0.331  10000 ; RIB3_P1
#endif

[ angles ]
   1    4    2    2    146    500 ; CAC1_ARO3_ARO1
   1    4    3    2    149    500 ; CAC1_ARO3_ARO2
   4    2    5    2    137    268 ; ARO3_ARO1_RIB1
   3    2    5    2    132    225 ; ARO2_ARO1_RIB1
   2    5    6    2    139    737 ; ARO1_RIB1_RIB2
   2    5    7    2     88   1000 ; ARO1_RIB1_RIB3
   5    7    8    2     95    750 ; RIB1_RIB3_P1
   6    7    8    2    110    246 ; RIB2_RIB3_P1

[ dihedrals ]
   2    5    7    8    1     75     40    1 ; ARO1_RIB1_RIB3_P1

[ constraints ]
#ifndef FLEXIBLE
   1    4    1      0.226 ; CAC1_ARO3
   2    3    1      0.204 ; ARO1_ARO2
   2    4    1      0.183 ; ARO1_ARO3
   3    4    1      0.200 ; ARO2_ARO3
   5    7    1      0.337 ; RIB1_RIB3
   7    8    1      0.331 ; RIB3_P1
#endif

[ virtual_sitesn ]
9 1 5 6 7

[ exclusions ]
9 5 6 7 8 2
1 2 3 4
2 3 4 5 6
3 4
5 6 7
6 7
7 8
; This file was generated using the following command:
; ff_inter -f mapped.xtc -s mapped.gro -i PALP.itp -dists -plots
;

; Please cite the following papers:
; Kroon, P C; Grunewald, F; Barnoud, J; van Tilburg, M; Souza, P C; Wassenaar, T A; Marrink, S J;  elife 2024; 10.7554/elife.90627.2
; Brasnett, C; Grunewald, L; Wassenaar, T A; Marrink, S J; Grunewald, F;  2025; https://zenodo.org/badge/latestdoi/327071500

[ moleculetype ]
PALP 1

[ atoms ]
1 TC4  1 PALP ARO1 1  0.0  0.0
2 TN6a 1 PALP ARO2 2  0.0 48.0
3 TC5  1 PALP ARO3 3  0.0  0.0
4 TC1  1 PALP C1   4  0.0 48.0
5 D    1 PALP P1   5 -2.0 72.0
6 TN5a 1 PALP CO1  6  0.0  0.0
7 TP1  1 PALP ALC1 7  0.0 48.0

[ virtual_sites3 ]
1 2 4 7 1 -0.795 0.666 ; ARO1
3 2 4 7 1 0.447 0.412 ; ARO3
6 2 4 7 1 0.854 0.861 ; CO1

[ bonds ]
#ifdef FLEXIBLE
4 5 1 0.253 10000 ; C1_P1
4 7 1 0.481 10000 ; C1_ALC1
7 2 1 0.397 10000 ; ALC1_ARO2
2 4 1 0.308 10000 ; ARO2_C1
#endif

[ constraints ]
#ifndef FLEXIBLE
4 5 1 0.253 ; C1_P1
4 7 1 0.481 ; C1_ALC1
7 2 1 0.397 ; ALC1_ARO2
2 4 1 0.308 ; ARO2_C1
#endif

[ angles ]
2 4 5 10 122.846 71.042 ; ARO2_C1_P1
5 4 7 10 120.000 125.000 ; P1_C1_ALC1

[ dihedrals ]
2 7 4 5 2 113.216 0.250 ; ARO2_ALC1_C1_P1

[ exclusions ]
1 2 3 4 5 6 7
2 1 3 4 5 6 7
3 1 2 4 5 6 7
4 1 2 3 5 6 7
5 1 2 3 4 6 7
6 1 2 3 4 5 7
7 1 2 3 4 5 6


; This file was generated using the following command:
; /coarse/chris/python_packages/fast_forward/.venv/bin/ff_inter -f mapped.xtc -s mapped.tpr -i PAU.itp -plots -dists -max-dihedral 10
; 

; Please cite the following papers:
; Brasnett, C; Grunewald, L; Wassenaar, T A; Marrink, S J; Grunewald, F;  2025; https://zenodo.org/badge/latestdoi/327071500
; Kroon, P C; Grunewald, F; Barnoud, J; van Tilburg, M; Souza, P C; Wassenaar, T A; Marrink, S J;  elife 2024; 10.7554/elife.90627.2

[ moleculetype ]
PAU 1

[ atoms ]
1 SC2 1 PAU C1   1  0.0
2 TP1 1 PAU ALC1 2  0.0
3 TP1 1 PAU ALC2 3  0.0
4 P3  1 PAU AMD1 4  0.0
5 Q5n 1 PAU CAC1 5 -1.0

[ bonds ]
1 3 1 0.277 4908.907 ; C1_ALC2
3 4 1 0.317 9828.136 ; ALC2_AMD1
4 5 1 0.28 10000 ; AMD1_CAC1
2 1 1 0.269 10000 ; ALC1_C1

[ angles ]
1 3 4 10 70 10 ;  C1_ALC2_AMD1
2 1 3 10 60 55 ; ALC1_C1_ALC2
3 4 5 10 131.096 50  ; ALC2_AMD1_CAC1

[ dihedrals ]

; ALC1_C1_ALC2_AMD1
2 1 3 4 9 -168.549 -1.278 1 ; ALC1_C1_ALC2_AMD1
2 1 3 4 9 155.692 -0.968 2 ; ALC1_C1_ALC2_AMD1
2 1 3 4 9 65.416 3.618 3 ; ALC1_C1_ALC2_AMD1
2 1 3 4 9 86.34 -1.591 4 ; ALC1_C1_ALC2_AMD1
2 1 3 4 9 71.67 -1.354 5 ; ALC1_C1_ALC2_AMD1
2 1 3 4 9 -31.3 1.234 6 ; ALC1_C1_ALC2_AMD1
2 1 3 4 9 -10.206 -1.135 7 ; ALC1_C1_ALC2_AMD1
2 1 3 4 9 -16.345 -1.109 8 ; ALC1_C1_ALC2_AMD1


; This file was generated using the following command:
; /coarse/chris/python_packages/fast_forward/.venv/bin/ff_inter -f mapped.xtc -s mapped.tpr -i PCRE.itp -plots -dists
; 

; Please cite the following papers:
; Brasnett, C; Grunewald, L; Wassenaar, T A; Marrink, S J; Grunewald, F;  2025; https://zenodo.org/badge/latestdoi/327071500
; Kroon, P C; Grunewald, F; Barnoud, J; van Tilburg, M; Souza, P C; Wassenaar, T A; Marrink, S J;  elife 2024; 10.7554/elife.90627.2

[ moleculetype ]
PCRE 1

[ atoms ]
1 SQ5n 1 PCRE CAC1 1 -1.0 54.0
2 SN3a 1 PCRE AMN1 2  0.0 54.0
3 SQ2p 1 PCRE AMC1 3  1.0 54.0
4 D    1 PCRE P1   4 -2.0 72.0

[ bonds ]
1 2 1 0.278 6199.798 ; CAC1_AMN1

#ifdef FLEXIBLE
2 3 1 0.276 10000 ; AMN1_AMC1
3 4 1 0.231 10000 ; AMC1_P1
#endif

[ constraints ]
#ifndef FLEXIBLE
2 3 1 0.276 ; AMN1_AMC1
3 4 1 0.231 ; AMC1_P1
#endif

[ angles ]
1 2 3 10 102.236 30 ; CAC1_AMN1_AMC1
2 3 4 10 123.931 72.838 ; AMN1_AMC1_P1

[ dihedrals ]
; CAC1_AMN1_AMC1_P1
1 2 3 4 9 0.285 -3.392 1 ; CAC1_AMN1_AMC1_P1
1 2 3 4 9 0.645 0.703 2 ; CAC1_AMN1_AMC1_P1
1 2 3 4 9 1.579 1.812 3 ; CAC1_AMN1_AMC1_P1
1 2 3 4 9 -151.729 -0.357 4 ; CAC1_AMN1_AMC1_P1
1 2 3 4 9 -1.913 -1.444 5 ; CAC1_AMN1_AMC1_P1
1 2 3 4 9 -1.164 -0.714 6 ; CAC1_AMN1_AMC1_P1
1 2 3 4 9 0.08 0.501 7 ; CAC1_AMN1_AMC1_P1
1 2 3 4 9 0.123 0.614 8 ; CAC1_AMN1_AMC1_P1
1 2 3 4 9 -179.76 -0.403 9 ; CAC1_AMN1_AMC1_P1


; This file was generated using the following command:
; ff_inter -f mapped.xtc -s mapped.gro -i PEP.itp -dists -plots
;

; Please cite the following papers:
; Brasnett, C; Grunewald, L; Wassenaar, T A; Marrink, S J; Grunewald, F;  2025; https://zenodo.org/badge/latestdoi/327071500
; Kroon, P C; Grunewald, F; Barnoud, J; van Tilburg, M; Souza, P C; Wassenaar, T A; Marrink, S J;  elife 2024; 10.7554/elife.90627.2

[ moleculetype ]
PEP 1

[ atoms ]
1 SQ5n 1 PEP CAC1 1 -1.0 54.0
2 TC4  1 PEP C1   2  0.0 36.0
3 D    1 PEP P1   3 -2.0 72.0

[ bonds ]
#ifdef FLEXIBLE
1 2 1 0.281 10000 ; CAC1_C1
2 3 1 0.381 10000 ; C1_P1
#endif

[ constraints ]
#ifndef FLEXIBLE
1 2 1 0.281 ; CAC1_C1
2 3 1 0.381 ; C1_P1
#endif

[ angles ]
1 2 3 10 62.419 350.000 ; CAC1_C1_P1

[ exclusions ]
1 2 3
2 1 3
3 1 2

[ moleculetype ]
PO4 1

[ atoms ]
1 D 1 PO4 P1 1 0.0 72.0

;
; Topology prepared automatically using PyCGTOOL
; James Graham <J.A.Graham@soton.ac.uk> 2016
; University of Southampton
; https://github.com/jag1g13/pycgtool
;

[ moleculetype ]
PRP    1

[ atoms ]
   1 SN6     1 PRP RIB1    1    0.000     54.0
   2 TP1     1 PRP RIB2    2    0.000     36.0
   3 SN4ar   1 PRP RIB3    3    0.000     54.0
   4 Q5      1 PRP P1      4   -1.000
   5 D       1 PRP P2      5   -2.000
   6 D       1 PRP P3      6   -2.000
   7 TC4     1 PRP RIB4    7    0.000     0

[ bonds ]
   1    2    1      0.251   9702  ; RIB1_RIB2
   1    3    1      0.329  14676  ; RIB1_RIB3
   2    3    1      0.271  11100  ; RIB2_RIB3
   1    4    1      0.320   7500  ; RIB1_P1
   3    6    1      0.328  50000  ; RIB3_P3

#ifdef FLEXIBLE
   4    5    1      0.264  10000  ; P2_P3
#endif

[ angles ]
   1    4    5    2    130    125  ; RIB1_P1_P2
   4    1    2    2    125     30  ; P1_RIB1_RIB2
   4    1    3    2     95    115  ; P1_RIB1_RIB3
   1    3    6    2    105     75  ; RIB1_RIB3_P3
   2    3    6    2    108     51  ; RIB2_RIB3_P3

[ dihedrals ]
;   5    4    1    2    1     50      2    2  ; P2_P1_RIB1_RIB2
;   6    3    1    4    1    -20      2    2  ; P3_RIB3_RIB1_P1

[ constraints ]
#ifndef FLEXIBLE
   4    5    1      0.264  ; P2_P3
#endif


[ virtual_sitesn ]
7 1 1 2 3

[ exclusions ]
7 1 2 3 4 6

;
; Topology prepared automatically using PyCGTOOL
; James Graham <J.A.Graham@soton.ac.uk> 2016
; University of Southampton
; https://github.com/jag1g13/pycgtool
;

[ moleculetype ]
PRPP    1

[ atoms ]
   1 SN6     1 PRPP RIB1    1    0.000     54.0
   2 TP1     1 PRPP RIB2    2    0.000     36.0
   3 SN4ar   1 PRPP RIB3    3    0.000     54.0
   4 Q5      1 PRPP P1      4   -1.000
   5 Q5      1 PRPP P2      5   -1.000
   6 D       1 PRPP P3      6   -2.000
   7 TC4     1 PRPP RIB4    7    0.000     0

[ bonds ]
   1    2    1      0.289   9702 ; RIB1_RIB2
   1    3    1      0.378  14676 ; RIB1_RIB3
   2    3    1      0.312  11100 ; RIB2_RIB3
   1    4    1      0.297  20000 ; RIB1_P1
   3    6    1      0.328  50000 ; RIB3_P3

#ifdef FLEXIBLE
   4    5    1      0.284  10000 ; P1_P2
#endif

[ angles ]
   1    4    5    2    124     44 ; RIB1_P1_P2
   4    1    2    2    105    120 ; P1_RIB1_RIB2
   4    1    3    2    101    110 ; P1_RIB1_RIB3
   1    3    6    2    122     40 ; RIB1_RIB3_P3
   2    3    6    2    101     51 ; RIB2_RIB3_P3

[ dihedrals ]
   5    4    1    2    1    -43      2    1 ; P2_P1_RIB1_RIB2
   6    3    1    4    1      7      2    1 ; P3_RIB3_RIB1_P1

[ constraints ]
#ifndef FLEXIBLE
   4    5    1      0.284 ; P1_P2
#endif

[ virtual_sitesn ]
7 1 1 2 3

[ exclusions ]
7 1 2 3 4 6
; This file was generated using the following command:
; ff_inter -f mapped.xtc -s mapped.gro -i PYR.itp -dists -plots
;

; Please cite the following papers:
; Kroon, P C; Grunewald, F; Barnoud, J; van Tilburg, M; Souza, P C; Wassenaar, T A; Marrink, S J;  elife 2024; 10.7554/elife.90627.2
; Brasnett, C; Grunewald, L; Wassenaar, T A; Marrink, S J; Grunewald, F;  2025; https://zenodo.org/badge/latestdoi/327071500

[ moleculetype ]
PYR 1

[ atoms ]
1 SP2  1 PYR ENO1 1  0.0 54.0
2 SQ5n 1 PYR CAC1 2 -1.0 54.0

[ bonds ]
#ifdef FLEXIBLE
1 2 1 0.282 10000 ; ENO1_CAC1
#endif

[ constraints ]
#ifndef FLEXIBLE
1 2 1 0.282 ; ENO1_CAC1
#endif

;
; Topology prepared automatically using PyCGTOOL
; James Graham <J.A.Graham@soton.ac.uk> 2016
; University of Southampton
; https://github.com/jag1g13/pycgtool
;

[ moleculetype ]
R1P     1

[ atoms ]
   1 SN6     1 R1P  RIB1    1    0.000    54.0
   2 TP1     1 R1P  RIB2    2    0.000    36.0
   3 SP1r    1 R1P  RIB3    3    0.000    54.0
   4 D       1 R1P  P1      4   -2.000
   5 TC4     1 R1P  RIB4    5    0.000    0

[ bonds ]
   1    2    1      0.286  15000 ; RIB1_RIB2
   1    3    1      0.416  13092 ; RIB1_RIB3
   2    3    1      0.330  14000 ; RIB2_RIB3

#ifdef FLEXIBLE
   1    4    1      0.285  10000 ; RIB1_P1
#endif

[ angles ]
   2    1    4    2    102    115 ; RIB2_RIB1_P1
   3    1    4    2    114    250 ; RIB3_RIB1_P1

[ constraints ]
#ifndef FLEXIBLE
   1    4    1      0.285 ; RIB1_P1
#endif

[ virtual_sitesn ]
5 1 1 2 3

[ exclusions ]
5 1 2 3 4
;
; Topology prepared automatically using PyCGTOOL
; James Graham <J.A.Graham@soton.ac.uk> 2016
; University of Southampton
; https://github.com/jag1g13/pycgtool
;

[ moleculetype ]
R5P     1

[ atoms ]
   1 SP4r    1 R5P  RIB1    1    0.000    54.0
   2 TP1     1 R5P  RIB2    2    0.000    36.0
   3 SN4ar   1 R5P  RIB3    3    0.000    54.0
   4 D       1 R5P  P1      4   -2.000
   5 TC4     1 R5P  RIB4    5    0.000    0

[ bonds ]
   1    2    1      0.291   6277 ; RIB1_RIB2
   2    3    1      0.313  13767 ; RIB2_RIB3
   1    3    1      0.366  25000 ; RIB1_RIB3
   3    4    1      0.330  50000 ; RIB3_P1

[ angles ]
   1    3    4    2    131     71 ; RIB1_RIB3_P1
   2    3    4    2    100     73 ; RIB2_RIB3_P1

[ virtual_sitesn ]
5 1 1 2 3

[ exclusions ]
5 1 2 3 4
;
; Topology prepared automatically using PyCGTOOL
; James Graham <J.A.Graham@soton.ac.uk> 2016
; University of Southampton
; https://github.com/jag1g13/pycgtool
;

[ moleculetype ]
RBFH    1

[ atoms ]
   1 SC4     1 RBFH FLV1    1    0.000
   2 SC4     1 RBFH FLV2    2    0.000
   3 TC5e    1 RBFH FLV3    3    0.000  0
   4 SN6a    1 RBFH FLV4    4    0.000
   5 SN3a    1 RBFH FLV5    5    0.000
   6 TC5e    1 RBFH FLV6    6    0.000  0
   7 SQ3     1 RBFH FLV7    7   -1.000
   8 SP3     1 RBFH FLV8    8    0.000
   9 TC5e    1 RBFH FLV9    9    0.000  0
  10 SP1     1 RBFH ALC1   10    0.000
  11 TP1     1 RBFH ALC2   11    0.000
  12 TP1     1 RBFH ALC3   12    0.000
  13 TP1     1 RBFH ALC4   13    0.000

[ bonds ]
   5   10    1      0.230  20000 ; FLV5_ALC1
  10   11    1      0.253  15000 ; ALC1_ALC2
  11   12    1      0.254  10258 ; ALC2_ALC3
  12   13    1      0.251   6915 ; ALC3_ALC4
   1    2    1      0.317  50000 ; FLV1_FLV2
   1    4    1      0.415  50000 ; FLV1_FLV4
   2    5    1      0.425  50000 ; FLV2_FLV5
   4    7    1      0.293  50000 ; FLV4_FLV7
   5    8    1      0.338  50000 ; FLV5_FLV8
   7    8    1      0.272  50000 ; FLV7_FLV8
   1    5    1      0.488  50000 ; FLV1_FLV5
   4    8    1      0.398  50000 ; FLV4_FLV8

[ angles ]
   5   10   11    2    145     90 ; FLV5_ALC1_ALC2
  10   11   12    2     80    300 ; ALC1_ALC2_ALC3
  11   12   13    2     70    250 ; ALC2_ALC3_ALC4
   1    4    7    2    157  10000 ; FLV1_FLV4_FLV7
   2    5    8    2    170  12000 ; FLV2_FLV5_FLV8

[ dihedrals ]
   1    2    4    5    1     -0.464    100    1 ; FLV1_FLV2_FLV4_FLV5
   4    5    7    8    1     -0.775     70    1 ; FLV4_FLV5_FLV7_FLV8
  10   11   12   13    1      0         20    1 ; ALC1_ALC2_ALC3_ALC4

[ virtual_sitesn ]
6 1 4 5
9 1 4 8

[ virtual_sites3 ]
3 1 2 4   2   0.500    0.230

[ exclusions ]
1 2 3 4 5 6 7 8 9
2 3 4 5 6 7 8 9
3 4 5 6 7 8 9
4 5 6 7 8 9
5 6 7 8 9 
6 7 8 9
7 8 9
8 9
10 11 12 13
11 12 13
12 13

;
; Topology prepared automatically using PyCGTOOL
; James Graham <J.A.Graham@soton.ac.uk> 2016
; University of Southampton
; https://github.com/jag1g13/pycgtool
;

[ moleculetype ]
RBF     1

[ atoms ]
   1 SC4     1 RBF  FLV1    1    0.000
   2 SC4     1 RBF  FLV2    2    0.000
   3 TC5e    1 RBF  FLV3    3    0.000  0
   4 SN6a    1 RBF  FLV4    4    0.000
   5 SN3a    1 RBF  FLV5    5    0.000
   6 TC5e    1 RBF  FLV6    6    0.000  0
   7 SP3     1 RBF  FLV7    7    0.000
   8 SP3     1 RBF  FLV8    8    0.000
   9 TC5e    1 RBF  FLV9    9    0.000  0
  10 SP1     1 RBF  ALC1   10    0.000
  11 TP1     1 RBF  ALC2   11    0.000
  12 TP1     1 RBF  ALC3   12    0.000
  13 TP1     1 RBF  ALC4   13    0.000

[ bonds ]
   5   10    1      0.230  20000 ; FLV5_ALC1
  10   11    1      0.253  15000 ; ALC1_ALC2
  11   12    1      0.268  10258 ; ALC2_ALC3
  12   13    1      0.251   6915 ; ALC3_ALC4
   1    2    1      0.317  50000 ; FLV1_FLV2
   1    4    1      0.415  50000 ; FLV1_FLV4
   2    5    1      0.425  50000 ; FLV2_FLV5
   4    7    1      0.330  50000 ; FLV4_FLV7
   5    8    1      0.344  50000 ; FLV5_FLV8
   7    8    1      0.258  50000 ; FLV7_FLV8
   1    5    1      0.488  50000 ; FLV1_FLV5
   4    8    1      0.406  50000 ; FLV4_FLV8

[ angles ]
   5   10   11    2    145     90 ; FLV5_ALC1_ALC2
  10   11   12    2     80    300 ; ALC1_ALC2_ALC3
  11   12   13    2     70    250 ; ALC2_ALC3_ALC4
   1    4    7    2    161  10000 ; FLV1_FLV4_FLV7
   2    5    8    2    170  15000 ; FLV2_FLV5_FLV8

[ dihedrals ]
   1    2    4    5    1     -0.464    100    1 ; FLV1_FLV2_FLV4_FLV5
   4    5    7    8    1     -0.775     70    1 ; FLV4_FLV5_FLV7_FLV8
  10   11   12   13    1      0         20    1 ; ALC1_ALC2_ALC3_ALC4

[ virtual_sitesn ]
6 1 4 5
9 1 4 8

[ virtual_sites3 ]
3 1 2 4   2   0.500    0.230

[ exclusions ]
1 2 3 4 5 6 7 8 9
2 3 4 5 6 7 8 9
3 4 5 6 7 8 9
4 5 6 7 8 9
5 6 7 8 9 
6 7 8 9
7 8 9
8 9
10 11 12 13
11 12 13
12 13
;
; Topology prepared automatically using PyCGTOOL
; James Graham <J.A.Graham@soton.ac.uk> 2016
; University of Southampton
; https://github.com/jag1g13/pycgtool
;

[ moleculetype ]
RI5P    1

[ atoms ]
   1 TP1     1 RI5P ALC1    1    0.000    36.0
   2 TN5a    1 RI5P CO1     2    0.000    36.0
   3 TP1     1 RI5P ALC2    3    0.000    36.0
   4 SP1     1 RI5P ALC3    4    0.000    54.0
   5 D       1 RI5P P1      5   -2.000

[ bonds ]
   1    2    1      0.223  15000 ; ALC1_CO1
   2    3    1      0.243  13525 ; CO1_ALC2
   3    4    1      0.254  11503 ; ALC2_ALC3
   4    5    1      0.315   5000 ; ALC3_P1

[ angles ]
   1    2    3    2     87    150 ; ALC1_CO1_ALC2
   2    3    4    2     89    150 ; CO1_ALC2_ALC3
   3    4    5    2    120     50 ; ALC2_ALC3_P1

[ dihedrals ]
   1    2    3    4    1       -10     15    1 ; ALC1_CO1_ALC2_ALC3

[ exclusions ]
1 2 3 4 5
2 3 4 5
3 4 5
4 5
; This file was generated using the following command:
; ff_inter -f mapped.xtc -s mapped.gro -i S7P.itp -dists -plots
;

; Please cite the following papers:
; Kroon, P C; Grunewald, F; Barnoud, J; van Tilburg, M; Souza, P C; Wassenaar, T A; Marrink, S J;  elife 2024; 10.7554/elife.90627.2
; Brasnett, C; Grunewald, L; Wassenaar, T A; Marrink, S J; Grunewald, F;  2025; https://zenodo.org/badge/latestdoi/327071500

[ moleculetype ]
S7P 1

[ atoms ]
1 TP1  1 S7P ALC1 1  0.0 36.0
2 TN5a 1 S7P CO1  2  0.0 36.0
3 TP1  1 S7P ALC2 3  0.0 36.0
4 TP1  1 S7P ALC3 4  0.0 36.0
5 TP1  1 S7P ALC4 5  0.0 36.0
6 SP1  1 S7P ALC5 6  0.0 54.0
7 D    1 S7P P1   7 -2.0 72.0

[ bonds ]
6 7 1 0.350 2000.000 ; ALC5_P1

#ifdef FLEXIBLE
1 2 1 0.22 10000 ; ALC1_CO1
2 3 1 0.246 10000 ; CO1_ALC2
3 4 1 0.25 10000 ; ALC2_ALC3
4 5 1 0.268 10000 ; ALC3_ALC4
5 6 1 0.25 10000 ; ALC4_ALC5
#endif

[ constraints ]
#ifndef FLEXIBLE
1 2 1 0.22 ; ALC1_CO1
2 3 1 0.246 ; CO1_ALC2
3 4 1 0.25 ; ALC2_ALC3
4 5 1 0.268 ; ALC3_ALC4
5 6 1 0.25 ; ALC4_ALC5
#endif

[ angles ]
1 2 3 10 85.202 150.000 ; ALC1_CO1_ALC2
2 3 4 10 68.441 150.000 ; CO1_ALC2_ALC3
3 4 5 10 63.523 150.000 ; ALC2_ALC3_ALC4
4 5 6 10 76.24 200.000 ; ALC3_ALC4_ALC5
5 6 7 10 90.000 20.362 ; ALC4_ALC5_P1

[ dihedrals ]
1 2 3 4 2 161.574 19.786 ; ALC1_CO1_ALC2_ALC3
2 3 4 5 2 138.656 84.226 ; CO1_ALC2_ALC3_ALC4
3 4 5 6 2 169.596 64.767 ; ALC2_ALC3_ALC4_ALC5
4 5 6 7 2 -156.016 9.194 ; ALC3_ALC4_ALC5_P1

[ exclusions ]
1 2 3 4 5 6 7
2 1 3 4 5 6 7
3 1 2 4 5 6 7
4 1 2 3 5 6 7
5 1 2 3 4 6 7
6 1 2 3 4 5 7
7 1 2 3 4 5 6

;
; Topology prepared automatically using PyCGTOOL
; James Graham <J.A.Graham@soton.ac.uk> 2016
; University of Southampton
; https://github.com/jag1g13/pycgtool
;

[ moleculetype ]
SACH    1

[ atoms ]
   1 SQ5n    1 SACH CAC1    1   -1.000
   2 TQ4p    1 SACH AMC1    2    1.000
   3 SC1     1 SACH C1      3    0.000
   4 SQ3p    1 SACH AMC2    4    1.000
   5 SQ5n    1 SACH CAC2    5   -1.000
   6 TC1     1 SACH C2      6    0.000
   7 SQ5n    1 SACH CAC3    7   -1.000

[ bonds ]
   2    3    1      0.314  15000 ; AMC1_C1
   3    4    1      0.326   4387 ; C1_AMC2
   4    5    1      0.294  10217 ; AMC2_CAC2
   4    6    1      0.317   8332 ; AMC2_C2
;changed from constraints
   6    7    1      0.242  25000 ; C2_CAC3

#ifdef FLEXIBLE
1 2 1 0.284 10000 ; CAC1_AMC1
#endif


[ angles ]
   1    2    3    2     80    300 ; CAC1_AMC1_C1
   2    3    4    2    120     30 ; AMC1_C1_AMC2
   3    4    5    2    147     30 ; C1_AMC2_CAC2
   3    4    6    2    133    100 ; C1_AMC2_C2
   5    4    6   10     75    250 ; CAC2_AMC2_C2
   4    6    7    2     90    150 ; AMC2_C2_CAC3

[ dihedrals ]
 ;  1    2    3    4    1   -150      3    1 ; CAC1_AMC1_C1_AMC2
 ;  3    4    6    7    1     175      3    1 ; C1_AMC2_C2_CAC3

[ constraints ]
#ifndef FLEXIBLE
   1    2    1      0.284 ; CAC1_AMC1
#endif

[ exclusions ]
1 2 3 4 5 6 7
2 3 4 5 6 7
3 4 5 6 7
4 5 6 7
5 6 7
6 7
; This file was generated using the following command:
; /coarse/chris/python_packages/fast_forward/.venv/bin/ff_inter -f mapped.xtc -s mapped.tpr -i SAM.itp -max-dihedral 5 -plots -itp-only -dists
; 

; Please cite the following papers:
; Brasnett, C; Grunewald, L; Wassenaar, T A; Marrink, S J; Grunewald, F;  2025; https://zenodo.org/badge/latestdoi/327071500
; Kroon, P C; Grunewald, F; Barnoud, J; van Tilburg, M; Souza, P C; Wassenaar, T A; Marrink, S J;  elife 2024; 10.7554/elife.90627.2

[ moleculetype ]
SAM 1

[ atoms ]
 1 SN1   1 SAM ADE1  1  0.0 45.0
 2 TN3a  1 SAM ADE2  2  0.0 45.0
 3 TN5a  1 SAM ADE3  3  0.0  0.0
 4 TP1d  1 SAM ADE4  4  0.0 45.0
 5 TN3a  1 SAM ADE5  5  0.0 45.0
 6 TC6   1 SAM ADE6  6  0.0  0.0
 7 SN6   1 SAM RIB1  7  0.0 54.0
 8 TP1   1 SAM RIB2  8  0.0 54.0
 9 SN4ar 1 SAM RIB3  9  0.0 54.0
10 TC4   1 SAM RIB4 10  0.0  0.0
11 Q1p   1 SAM SC1  11  1.0     
12 SQ4p  1 SAM NC3  12  1.0     
13 SQ5n  1 SAM CAC1 13 -1.0     

[ bonds ]
 1  7 b_ADE1_RIB1
 7  8 b_RIB1_RIB2
 9 11 1 0.334 3867.751 ; RIB3_SC1
11 12 1 0.389 9507.002 ; SC1_NC3
11 13 1 0.414 2709.582 ; SC1_CAC1

#ifdef FLEXIBLE
 7  9 b_RIB1_RIB3
 8  9 b_RIB2_RIB3
12 13 1 0.268 10000 ; NC3_CAC1
#endif

[ constraints ]
 1  2 1 0.268
 1  5 1 0.287
 4  5 1 0.316
 2  5 1 0.353
 2  4 1 0.417

#ifndef FLEXIBLE
 7  9 c_RIB1_RIB3
 8  9 c_RIB2_RIB3
12 13 1 0.268 ; NC3_CAC1
#endif

[ angles ]
 2  1  7 a_ADE2_ADE1_RIB1
 1  7  8 a_ADE1_RIB1_RIB2
 1  7  9 a_ADE1_RIB1_RIB3
 7  9 11 10 135.029 100.388 ; RIB1_RIB3_SC1
 9 11 12 10 120.98 58.598 ; RIB3_SC1_NC3
 9 11 13 10 122.789 32.247 ; RIB3_SC1_CAC1

[ virtual_sitesn ]
 6 2  2  5
10 1  7  8  9

[ dihedrals ]
 1  7  8  9 d_ADE1_RIB1_RIB2_RIB3
 1  2  5  4 d_ADE1_ADE2_ADE5_ADE4
 2  1  7  9 d_ADE2_ADE1_RIB1_RIB3_1
 2  1  7  9 d_ADE2_ADE1_RIB1_RIB3_2
 2  1  7  9 d_ADE2_ADE1_RIB1_RIB3_3
 2  1  7  9 d_ADE2_ADE1_RIB1_RIB3_4
 2  1  7  9 d_ADE2_ADE1_RIB1_RIB3_5
 1  7  9 11 2 -38.216 43.974 ; ADE1_RIB1_RIB3_SC1
 7  9 11 12 2 -146.276 14.579 ; RIB1_RIB3_SUL1_NC3

[ virtual_sites3 ]
 3  5  2  4 2 0.52 0.373

[ exclusions ]
 1  2  3  4  5  6 
 2  3  4  5  6 
 3  4  5  6 
 4  5  6 
 5  6 
10  7  8  9 
 2  1  7  8  9 
 1  7  8  9 


; This file was generated using the following command:
; ff_inter -f mapped.xtc -s mapped.gro -i SPER.itp -dists -plots -itp-only
;

; Please cite the following papers:
; Brasnett, C; Grunewald, L; Wassenaar, T A; Marrink, S J; Grunewald, F;  2025; https://zenodo.org/badge/latestdoi/327071500
; Kroon, P C; Grunewald, F; Barnoud, J; van Tilburg, M; Souza, P C; Wassenaar, T A; Marrink, S J;  elife 2024; 10.7554/elife.90627.2

[ moleculetype ]
SPER 1

[ atoms ]
1 SQ4p 1 SPER AMC1 1 1.0 54.0
2 SQ3p 1 SPER AMC2 2 1.0 54.0
3 TC1  1 SPER C1   3 0.0 36.0
4 SQ3p 1 SPER AMC3 4 1.0 54.0
5 SQ4p 1 SPER AMC4 5 1.0 54.0

[ bonds ]
1 2 1 0.374 4841.669 ; AMC1_AMC2
4 5 1 0.373 4887.463 ; AMC3_AMC4

[ constraints ]
2 3 1 0.297 ; AMC2_C1
3 4 1 0.297 ; C1_AMC3

[ angles ]
1 2 3 10 150.000 100 ; AMC1_AMC2_C1
2 3 4 1 160.405 100 ; AMC2_C1_AMC3
3 4 5 10 150.000 100 ; C1_AMC3_AMC4

[ exclusions ]
1 2 3 4 5
2 1 3 4 5
3 1 2 4 5
4 1 2 3 5
5 1 2 3 4

; This file was generated using the following command:
; /coarse/chris/python_packages/fast_forward/.venv/bin/ff_inter -f ../mapped.xtc -s ../mapped.tpr -i SUCC.itp -plots -dists
; 

; Please cite the following papers:
; Kroon, P C; Grunewald, F; Barnoud, J; van Tilburg, M; Souza, P C; Wassenaar, T A; Marrink, S J;  elife 2024; 10.7554/elife.90627.2
; Brasnett, C; Grunewald, L; Wassenaar, T A; Marrink, S J; Grunewald, F;  2025; https://zenodo.org/badge/latestdoi/327071500

[ moleculetype ]
SUCC 1

[ atoms ]
1 SQ5n 1 SUCC CAC1 1 -1.0 54.0
2 TC1  1 SUCC C1   2  0.0 36.0
3 SQ5n 1 SUCC CAC2 3 -1.0 54.0

[ bonds ]
#ifdef FLEXIBLE
1 2 1 0.234 10000 ; CAC1_C1
2 3 1 0.234 10000 ; C1_CAC2
1 3 1 0.458 10000 ; CAC1_CAC2
#endif

[ constraints ]
#ifndef FLEXIBLE
1 2 1 0.234 ; CAC1_C1
2 3 1 0.234 ; C1_CAC2
1 3 1 0.458 ; CAC1_CAC2
#endif


; This file was generated using the following command:
; /coarse/chris/python_packages/fast_forward/.venv/bin/ff_inter -f mapped.xtc -s mapped.tpr -i TAU.itp -plots -dists
; 

; Please cite the following papers:
; Kroon, P C; Grunewald, F; Barnoud, J; van Tilburg, M; Souza, P C; Wassenaar, T A; Marrink, S J;  elife 2024; 10.7554/elife.90627.2
; Brasnett, C; Grunewald, L; Wassenaar, T A; Marrink, S J; Grunewald, F;  2025; https://zenodo.org/badge/latestdoi/327071500

[ moleculetype ]
TAU 1

[ atoms ]
1 Q4n  1 TAU SUL1 1 -1.0 72.0
2 TQ3p 1 TAU AMC1 2  1.0 36.0

[ bonds ]
#ifdef FLEXIBLE
1 2 1 0.298 10000 ; SUL1_AMC1
#endif

[ constraints ]
#ifndef FLEXIBLE
1 2 1 0.298 ; SUL1_AMC1
#endif


; This file was generated using the following command:
; /coarse/chris/python_packages/fast_forward/.venv/bin/ff_inter -f mapped.xtc -s mapped.tpr -i THDH.itp -max-dihedral 5 -plots -itp-only -dists
; 

; Please cite the following papers:
; Kroon, P C; Grunewald, F; Barnoud, J; van Tilburg, M; Souza, P C; Wassenaar, T A; Marrink, S J;  elife 2024; 10.7554/elife.90627.2
; Brasnett, C; Grunewald, L; Wassenaar, T A; Marrink, S J; Grunewald, F;  2025; https://zenodo.org/badge/latestdoi/327071500

[ moleculetype ]
THD 1

[ atoms ]
 1 SN1   1 THD THY1  1  0.0 57.0
 2 TP1a  1 THD THY2  2  0.0 57.0
 3 TN5d  1 THD THY3  3  0.0  0.0
 4 TP1a  1 THD THY4  4  0.0 57.0
 5 TC2   1 THD THY5  5  0.0  0.0
 6 TC3   1 THD RIB1  6  0.0 54.0
 7 TP1   1 THD RIB2  7  0.0 54.0
 8 SN4ar 1 THD RIB3  8  0.0 54.0
 9 TC4   1 THD RIB4  9  0.0  0.0

[ bonds ]
 1  6 b_THY1_RIB1  
#ifdef FLEXIBLE
 6  7 b_D_RIB1_RIB2
 6  8 b_D_RIB1_RIB3
 7  8 b_D_RIB2_RIB3
#endif

[ constraints ]
 1  2 1 0.286 
 1  4 1 0.371 
 2  4 1 0.449 
#ifndef FLEXIBLE
 6  7 c_D_RIB1_RIB2
 6  8 c_D_RIB1_RIB3
 7  8 c_D_RIB2_RIB3
#endif

[ angles ]
 2  1  6 a_THY2_THY1_RIB1  
; 4  1  6 a_THY4_THY1_RIB1  
 5  1  6 a_THY5_THY1_RIB1  
 1  6  7 a_THY1_RIB1_RIB2
 1  6  8 a_THY1_RIB1_RIB3  
 

[ virtual_sitesn ]
 3 2  2  4
 9 1  6  7  8

[ virtual_sites3 ]
5 2 1 4 2 0.401 0.418 ; THY5_THY1_THY2_THY4

[ dihedrals ]
 1  6  7  8 d_THY1_RIB1_RIB2_RIB3
 2  1  6  8 d_THY2_THY1_RIB1_RIB3
; 4  1  6  8 d_THY4_THY1_RIB1_RIB3
 5  1  6  8 d_THY5_THY1_RIB1_RIB3


[ exclusions ]
 1  2  3  4  5  6  7  8  9 
 2  3  4  5  6  7  8  9
 3  4  5  6  7  8  9
 4  5  6  7  8  9
 5  6  7  8  9
 6  7  8  9
 7  8  9
 8  9

;
; Topology prepared automatically using PyCGTOOL
; James Graham <J.A.Graham@soton.ac.uk> 2016
; University of Southampton
; https://github.com/jag1g13/pycgtool
;

[ moleculetype ]
THFG    1

[ atoms ]
   1 SN4a    1 THFG IMI1    1    0.000   54
   2 SP3     1 THFG AMD1    2    0.000   54
   3 TC5e    1 THFG ARO1    3    0.000   0
   4 TN4     1 THFG AMN1    4    0.000   36
   5 TN4     1 THFG AMN2    5    0.000   36
   6 TN4     1 THFG AMN3    6    0.000   36
   7 TC5     1 THFG ARO2    7    0.000   36
   8 TC5     1 THFG ARO3    8    0.000   36
   9 TC5     1 THFG ARO4    9    0.000   36
  10 SP3     1 THFG AMD2   10    0.000   54
  11 SC2     1 THFG C1     11    0.000   54
  12 SQ5n    1 THFG CAC1   12   -1.000   54
  13 SQ5n    1 THFG CAC2   13   -1.000   54

[ bonds ]
   6    7    1      0.257   3183  ; AMN3_ARO2
   9   10    1      0.243   7500  ; ARO4_AMD2
  10   11    1      0.275   5671  ; AMD2_C1
  11   12    1      0.281   4629  ; C1_CAC1
;changed from constraints
  11   13    1      0.276  15000  ; C1_CAC2
   5    6    1      0.246  15000  ; AMN2_AMN3
   2    4    1      0.493  25000  ; AMD1_AMN1
   2    5    1      0.565  25000  ; AMD1_AMN2
   1    4    1      0.493  50000  ; IMI1_AMN1

#ifdef FLEXIBLE
   1    2    1      0.286  10000  ; IMI1_AMD1
   4    5    1      0.277  10000  ; AMN1_AMN2
   7    8    1      0.301  10000  ; ARO2_ARO3
   7    9    1      0.222  10000  ; ARO2_ARO4
   8    9    1      0.302  10000  ; ARO3_ARO4
#endif

[ angles ]
   5    6    7    2    160     75  ; AMN2_AMN3_ARO2
   6    7    8   10     84     75  ; AMN3_ARO2_ARO3
   8    9   10   10     77    100  ; ARO3_ARO4_AMD2
   9   10   11    2    140     77  ; ARO4_AMD2_C1
  10   11   12    2     85    100  ; AMD2_C1_CAC1
  10   11   13    2    140     75  ; AMD2_C1_CAC2


[ dihedrals ]
   2    1    5    4    2      5     30   ; AMD1_IMI1_AMN2_AMN1
;   2    1    5    4    2    170     50    ; AMD1_IMI1_AMN2_AMN1
   5    8    9   11    1      0     10    1  ; AMN2_ARO3_ARO4_C1
;   2    1    6    7    2    -110     1   ; AMD1_IMI1_AMN3_ARO2


[ constraints ]
#ifndef FLEXIBLE
   1    2    1      0.286  ; IMI1_AMD1
   4    5    1      0.277  ; AMN1_AMN2
   7    8    1      0.301  ; ARO2_ARO3
   7    9    1      0.222  ; ARO2_ARO4
   8    9    1      0.302  ; ARO3_ARO4
#endif

[ virtual_sitesn ]
3 1 1 2 4 5

[ exclusions ]
1 2 3 4 5
2 3 4 5
3 4 5
4 5
5 6 
6 7 
7 8 9 
8 9
10 11 12
11 12 13
; This file was generated using the following command:
; /coarse/chris/python_packages/fast_forward/.venv/bin/ff_inter -f mapped.xtc -s mapped.tpr -i THDH.itp -max-dihedral 5 -plots -itp-only -dists
; 

; Please cite the following papers:
; Kroon, P C; Grunewald, F; Barnoud, J; van Tilburg, M; Souza, P C; Wassenaar, T A; Marrink, S J;  elife 2024; 10.7554/elife.90627.2
; Brasnett, C; Grunewald, L; Wassenaar, T A; Marrink, S J; Grunewald, F;  2025; https://zenodo.org/badge/latestdoi/327071500

[ moleculetype ]
THY 1

[ atoms ]
 1 SN1   1 THY THY1  1  0.0 57.0
 2 TP1a  1 THY THY2  2  0.0 57.0
 3 TN5d  1 THY THY3  3  0.0  0.0
 4 TP1a  1 THY THY4  4  0.0 57.0
 5 TC2   1 THY THY5  5  0.0  0.0

[ constraints ]
 1  2 1 0.286
 1  4 1 0.371
 2  4 1 0.449

[ virtual_sitesn ]
 3 2  2  4

[ virtual_sites3 ]
5 2 1 4 2 0.401 0.418 ; THY5_THY1_THY2_THY4

[ exclusions ]
 1  2  3  4  5 
 2  3  4  5 
 3  4  5 
 4  5 

;
; Topology prepared automatically using PyCGTOOL
; James Graham <J.A.Graham@soton.ac.uk> 2016
; University of Southampton
; https://github.com/jag1g13/pycgtool
;

[ moleculetype ]
TMG     1

[ atoms ]
   1 Q2      1 TMG  AMC1    1    1.000
   2 Q5n     1 TMG  CAC1    2   -1.000

[ bonds ]
#ifdef FLEXIBLE
1 2 1 0.327 10000 ; AMC1_CAC1
#endif


[ constraints ]
#ifndef FLEXIBLE
   1    2    1      0.327  ; AMC1_CAC1
#endif
; This file was generated using the following command:
; /coarse/chris/python_packages/fast_forward/.venv/bin/ff_inter -f mapped.xtc -s mapped.tpr -i TPPH.itp -max-dihedral 5 -plots -dists -itp-only
; 

; Please cite the following papers:
; Kroon, P C; Grunewald, F; Barnoud, J; van Tilburg, M; Souza, P C; Wassenaar, T A; Marrink, S J;  elife 2024; 10.7554/elife.90627.2
; Brasnett, C; Grunewald, L; Wassenaar, T A; Marrink, S J; Grunewald, F;  2025; https://zenodo.org/badge/latestdoi/327071500

[ moleculetype ]
TPPH 1

[ atoms ]
1 SN2  1 TPPH PYR1 1      
2 SN4  1 TPPH PYR2 2      
3 SC2  1 TPPH PYR3 3      
4 SQ3p 1 TPPH THA1 4  1.0 
5 SC2  1 TPPH THA2 5      
6 TC2  1 TPPH C1   6      
7 Q5n  1 TPPH P1   7 -1.0 
8 Q5n  1 TPPH P2   8 -1.0 

[ bonds ]
3 4 1 0.308 2702.405 ; PYR3_THA1

#ifdef FLEXIBLE
1 2 1 0.382 10000 ; PYR1_PYR2
1 3 1 0.452 10000 ; PYR1_PYR3
2 3 1 0.296 10000 ; PYR2_PYR3
4 5 1 0.321 10000 ; THA1_THA2
5 6 1 0.339 10000 ; THA2_C1
6 7 1 0.323 10000 ; C1_P1
7 8 1 0.284 10000 ; P1_P2
#endif

[ constraints ]
#ifndef FLEXIBLE
1 2 1 0.382 ; PYR1_PYR2
1 3 1 0.452 ; PYR1_PYR3
2 3 1 0.296 ; PYR2_PYR3
4 5 1 0.321 ; THA1_THA2
5 6 1 0.339 ; THA2_C1
6 7 1 0.323 ; C1_P1
7 8 1 0.284 ; P1_P2
#endif

[ angles ]
1 3 4 10 115.202 61.248 ; PYR1_PYR3_THA1
2 3 4 10 78.679 52.153 ; PYR2_PYR3_THA1
3 4 5 10 61.589 200 ; PYR3_THA1_THA2
4 5 6 10 79.838 200 ; THA1_THA2_C1
5 6 7 10 89.634 51.036 ; THA2_C1_P1
6 7 8 10 115.399 100 ; C1_P1_P2

[ dihedrals ]
2 3 4 5 2 177.101 11.756 ; PYR2_PYR3_THA1_THA2
3 4 5 6 2 -178.763 16.629 ; PYR3_THA1_THA2_C1

; THA1_THA2_C1_P1
4 5 6 7 9 178.17 -2.31 1 ; THA1_THA2_C1_P1

; THA2_C1_P1_P2
5 6 7 8 9 -5.263 -2.093 1 ; THA2_C1_P1_P2

[ exclusions ]
1 2 3 4 5 6 7 8 
2 3 4 5 6 7 8 
3 4 5 6 7 8 
4 5 6 7 8 
5 6 7 8 
6 7 8 
7 8 


; This file was generated using the following command:
; /coarse/chris/python_packages/fast_forward/.venv/bin/ff_inter -f mapped.xtc -s mapped.tpr -i TPP.itp -max-dihedral 5 -plots -dists
; 

; Please cite the following papers:
; Brasnett, C; Grunewald, L; Wassenaar, T A; Marrink, S J; Grunewald, F;  2025; https://zenodo.org/badge/latestdoi/327071500
; Kroon, P C; Grunewald, F; Barnoud, J; van Tilburg, M; Souza, P C; Wassenaar, T A; Marrink, S J;  elife 2024; 10.7554/elife.90627.2

[ moleculetype ]
TPP 1

[ atoms ]
1 SN2  1 TPP PYR1 1      
2 SN4  1 TPP PYR2 2      
3 SC2  1 TPP PYR3 3      
4 SQ3p 1 TPP THA1 4  1.0 
5 SC2  1 TPP THA2 5      
6 TC2  1 TPP C1   6      
7 Q5n  1 TPP P1   7 -1.0 
8 D    1 TPP P2   8 -2.0 

[ bonds ]
3 4 1 0.31 2639.929 ; PYR3_THA1

#ifdef FLEXIBLE
1 2 1 0.382 10000 ; PYR1_PYR2
1 3 1 0.452 10000 ; PYR1_PYR3
2 3 1 0.296 10000 ; PYR2_PYR3
4 5 1 0.321 10000 ; THA1_THA2
5 6 1 0.337 10000 ; THA2_C1
6 7 1 0.323 10000 ; C1_P1
7 8 1 0.265 10000 ; P1_P2
#endif

[ constraints ]
#ifndef FLEXIBLE
1 2 1 0.382 ; PYR1_PYR2
1 3 1 0.452 ; PYR1_PYR3
2 3 1 0.296 ; PYR2_PYR3
4 5 1 0.321 ; THA1_THA2
5 6 1 0.337 ; THA2_C1
6 7 1 0.323 ; C1_P1
7 8 1 0.265 ; P1_P2
#endif

[ angles ]
1 3 4 10 115.339 61.387 ; PYR1_PYR3_THA1
2 3 4 10 78.152 52.35 ; PYR2_PYR3_THA1
3 4 5 10  61.372 200 ; PYR3_THA1_THA2
4 5 6 10  79.815 200 ; THA1_THA2_C1
5 6 7 10 89.634 25 ; THA2_C1_P1
6 7 8 10 118.989 65.536 ; C1_P1_P2

[ dihedrals ]
2 3 4 5 2 178.419 9.3 ; PYR2_PYR3_THA1_THA2
3 4 5 6 2 -179.393 17.076 ; PYR3_THA1_THA2_C1

; THA1_THA2_C1_P1
4 5 6 7 9 -174.92 -2.49 1 ; THA1_THA2_C1_P1

; THA2_C1_P1_P2
5 6 7 8 9 178.077 -2.239 1 ; THA2_C1_P1_P2

[ exclusions ]
1 2 3 4 5 6 7 8
2 3 4 5 6 7 8
3 4 5 6 7 8
4 5 6 7 8
5 6 7 8
6 7 8
7 8

; This file was generated using the following command:
; /martini/chelsea/Projects/Metabolites/bin/ff_assessment_v/bin/ff_inter -f mapped.xtc -s mapped.tpr -i UDPA.itp -dists -itp-only
; 

; Please cite the following papers:
; Kroon, P C; Grunewald, F; Barnoud, J; van Tilburg, M; Souza, P C; Wassenaar, T A; Marrink, S J;  elife 2024; 10.7554/elife.90627.2
; Brasnett, C; Grunewald, L; Wassenaar, T A; Marrink, S J; Grunewald, F;  2025; https://zenodo.org/badge/latestdoi/327071500

[ moleculetype ]
UDPA 1

[ atoms ]
 1 SN1   1 UDPA URA1  1  0.0 45.0
 2 TP1a  1 UDPA URA2  2  0.0 45.0
 3 TN5d  1 UDPA URA3  3  0.0  0.0
 4 TP1a  1 UDPA URA4  4  0.0 45.0
 5 TC5   1 UDPA URA5  5  0.0  0.0
 6 TC3   1 UDPA RIB1  6  0.0 54.0
 7 TP1   1 UDPA RIB2  7  0.0 54.0
 8 SN4ar 1 UDPA RIB3  8  0.0 54.0
 9 TC4   1 UDPA RIB4  9  0.0  0.0
10 Q5n   1 UDPA P1   10 -1.0 72.0
11 Q5n   1 UDPA P2   11 -1.0 72.0
12 SN6   1 UDPA GAL1 12  0.0     
13 SP4r  1 UDPA GAL2 13  0.0     
14 SP1r  1 UDPA GAL3 14  0.0     
15 TC4   1 UDPA GAL4 15  0.0  0.0

[ bonds ]
 1  6 b_URA1_RIB1   ; URA1_RIB1
 6  7 b_RIB1_RIB2   ; RIB1_RIB2
12 13 1 0.276 18000 ; GAL1_GAL2
13 14 1 0.344 18000 ; GAL2_GAL3
12 14 1 0.463 18000 ; GAL1_GAL3

#ifdef FLEXIBLE
 6  8 b_RIB1_RIB3   ; RIB1_RIB3
 7  8 b_RIB2_RIB3   ; RIB2_RIB3
 8 10 b_RIB3_P1     ; RIB3_P1
10 11 b_P1_P2       ; P1_P2
11 12 1 0.294 10000 ; P2_GAL1
#endif

[ constraints ]
 1  2 1 0.290   ; URA1_URA2
 1  4 1 0.374   ; URA1_URA4
 2  4 1 0.451   ; URA2_URA4

#ifndef FLEXIBLE
 6  8 c_RIB1_RIB3 ; RIB1_RIB3
 7  8 c_RIB2_RIB3 ; RIB2_RIB3
 8 10 c_RIB3_P1   ; RIB3_P1
10 11 c_P1_P2     ; P1_P2
11 12 1 0.294     ; P2_GAL1
#endif

[ angles ]
 2  1  6 a_URA2_URA1_RIB1 ; URA2_URA1_RIB1
 1  6  7 a_URA1_RIB1_RIB2 ; URA1_RIB1_RIB2
 1  6  8 a_URA1_RIB1_RIB3 ; URA1_RIB1_RIB3
 6  8 10 a_RIB1_RIB3_P1   ; RIB1_RIB3_P1
 8 10 11 a_RIB3_P1_P2     ; RIB3_P1_P2
10 11 12 10 135.431 101.818 ; P1_P2_GAL1
11 12 13 10 138.829 115.705 ; P2_GAL1_GAL2
11 12 14 10 91.912 150 ; P2_GAL1_GAL3

[ virtual_sitesn ]
 5 2  1  4
 3 2  2  4
 9 1  6  7  8
15 1 12 13 14

[ dihedrals ]
 1  2  4  5 2 0.0 100.0     ; URA1_URA2_URA4_URA5

 2  1  6  8 d_URA2_URA1_RIB1_RIB3_1 ; URA2_URA1_RIB1_RIB3
 2  1  6  8 d_URA2_URA1_RIB1_RIB3_2 ; URA2_URA1_RIB1_RIB3
 2  1  6  8 d_URA2_URA1_RIB1_RIB3_3 ; URA2_URA1_RIB1_RIB3
 2  1  6  8 d_URA2_URA1_RIB1_RIB3_4 ; URA2_URA1_RIB1_RIB3
 2  1  6  8 d_URA2_URA1_RIB1_RIB3_5 ; URA2_URA1_RIB1_RIB3

 1  6  7  8 d_URA1_RIB1_RIB2_RIB3   ; URA1_RIB1_RIB2_RIB3

 1  6  8 10 d_URA1_RIB1_RIB3_P1     ; URA1_RIB1_RIB3_P1
 6  8 10 11 d_RIB1_RIB3_P1_P2       ; RIB1_RIB3_P1_P2

; RIB3_P1_P2_GAL1
 8 10 11 12 9 33.648 -3.898 1 ; RIB3_P1_P2_GAL1

[ exclusions ]
 1  2  3  4  5 
 2  3  4  5 
 3  4  5 
 4  5 
 9  6  7  8 
15 12 13 14 
11 12 13 14 15


; This file was generated using the following command:
; /home/chelsea/.local/bin/ff_inter -f mapped.xtc -s mapped.tpr -i UDPF.itp -dists -itp-only
; 

; Please cite the following papers:
; Kroon, P C; Grunewald, F; Barnoud, J; van Tilburg, M; Souza, P C; Wassenaar, T A; Marrink, S J;  elife 2024; 10.7554/elife.90627.2
; Brasnett, C; Grunewald, L; Wassenaar, T A; Marrink, S J; Grunewald, F;  2025; https://zenodo.org/badge/latestdoi/327071500

[ moleculetype ]
UDPF 1

[ atoms ]
 1 SN1   1 UDPF URA1  1  0.0 45.0
 2 TP1a  1 UDPF URA2  2  0.0 45.0
 3 TN5d  1 UDPF URA3  3  0.0  0.0
 4 TP1a  1 UDPF URA4  4  0.0 45.0
 5 TC5   1 UDPF URA5  5  0.0  0.0
 6 TC3   1 UDPF RIB1  6  0.0 54.0
 7 TP1   1 UDPF RIB2  7  0.0 54.0
 8 SN4ar 1 UDPF RIB3  8  0.0 54.0
 9 TC4   1 UDPF RIB4  9  0.0  0.0
10 Q5n   1 UDPF P1   10 -1.0 72.0
11 Q5n   1 UDPF P2   11 -1.0 72.0
12 TN4ar 1 UDPF GLF1 12  0.0     
13 SP4r  1 UDPF GLF2 13  0.0     
14 SN6   1 UDPF GLF3 14  0.0     
15 TP1   1 UDPF GLF4 15  0.0     
16 TC4   1 UDPF GLF5 16  0.0  0.0

[ bonds ]
 1  6 b_URA1_RIB1   ; URA1_RIB1
 6  7 b_RIB1_RIB2   ; RIB1_RIB2
12 14 1 0.329 18000 ; GLF1_GLF3
13 14 1 0.329 18000 ; GLF2_GLF3
14 15 1 0.288 18000 ; GLF3_GLF4
12 15 1 0.269 18000 ; GLF1_GLF4

#ifdef FLEXIBLE
 6  8 b_RIB1_RIB3 ; RIB1_RIB3
 7  8 b_RIB2_RIB3 ; RIB2_RIB3
 8 10 b_RIB3_P1   ; RIB3_P1
10 11 b_P1_P2     ; P1_P2
11 12 1 0.271 10000 ; P2_GLF1
#endif

[ constraints ]
 1  2 1 0.290   ; URA1_URA2
 1  4 1 0.374   ; URA1_URA4
 2  4 1 0.451   ; URA2_URA4

#ifndef FLEXIBLE
 6  8 c_RIB1_RIB3 ; RIB1_RIB3
 7  8 c_RIB2_RIB3 ; RIB2_RIB3
 8 10 c_RIB3_P1   ; RIB3_P1
10 11 c_P1_P2     ; P1_P2
11 12 1 0.271 ; P2_GLF1
#endif

[ angles ]
 2  1  6 a_URA2_URA1_RIB1 ; URA2_URA1_RIB1
 1  6  7 a_URA1_RIB1_RIB2 ; URA1_RIB1_RIB2
 1  6  8 a_URA1_RIB1_RIB3 ; URA1_RIB1_RIB3
 6  8 10 a_RIB1_RIB3_P1   ; RIB1_RIB3_P1
 8 10 11 a_RIB3_P1_P2     ; RIB3_P1_P2
10 11 12 10 109.875 56.696 ; P1_P2_GLF1
11 12 14 10 100 63.371 ; P2_GLF1_GLF3
;11 12 15 10 86.106 50.375 ; P2_GLF1_GLF4
11 12 15 10 70 75 ; P2_GLF1_GLF4
12 14 13 10 78.813 250 ; GLF1_GLF3_GLF2

[ virtual_sitesn ]
 5 2  1  4
 3 2  2  4
 9 1  6  7  8
16 1 12 14 15

[ dihedrals ]
 1  2  4  5 2 0.0 100.0     ; URA1_URA2_URA4_URA5

 2  1  6  8 d_URA2_URA1_RIB1_RIB3_1 ; URA2_URA1_RIB1_RIB3
 2  1  6  8 d_URA2_URA1_RIB1_RIB3_2 ; URA2_URA1_RIB1_RIB3
 2  1  6  8 d_URA2_URA1_RIB1_RIB3_3 ; URA2_URA1_RIB1_RIB3
 2  1  6  8 d_URA2_URA1_RIB1_RIB3_4 ; URA2_URA1_RIB1_RIB3
 2  1  6  8 d_URA2_URA1_RIB1_RIB3_5 ; URA2_URA1_RIB1_RIB3

 1  6  7  8 d_URA1_RIB1_RIB2_RIB3   ; URA1_RIB1_RIB2_RIB3

 1  6  8 10 d_URA1_RIB1_RIB3_P1     ; URA1_RIB1_RIB3_P1
 6  8 10 11 d_RIB1_RIB3_P1_P2       ; RIB1_RIB3_P1_P2

11 12 14 13 2 -103.763 41.318 ; P2_GLF1_GLF3_GLF2

; RIB3_P1_P2_GLF1
 8 10 11 12 9 -24.394 -3.963 1 ; RIB3_P1_P2_GLF1
 8 10 11 12 9 99.697 1.279 2 ; RIB3_P1_P2_GLF1
; 8 10 11 12 9 -19.05 0.647 3 ; RIB3_P1_P2_GLF1
; 8 10 11 12 9 -114.45 1.115 4 ; RIB3_P1_P2_GLF1
; 8 10 11 12 9 26.456 -1.39 5 ; RIB3_P1_P2_GLF1
; 8 10 11 12 9 -12.995 -0.816 6 ; RIB3_P1_P2_GLF1
; 8 10 11 12 9 100.224 0.271 7 ; RIB3_P1_P2_GLF1
; 8 10 11 12 9 16.757 0.1 8 ; RIB3_P1_P2_GLF1

; URA1_RIB1_P2_GLF1
; 1  6 11 12 9 27.192 2 1 ; URA1_RIB1_P2_GLF1
; 1  6 11 12 9 22.539 -1.342 2 ; URA1_RIB1_P2_GLF1
; 1  6 11 12 9 32.437 -0.995 3 ; URA1_RIB1_P2_GLF1
; 1  6 11 12 9 -169.011 0.374 4 ; URA1_RIB1_P2_GLF1
; 1  6 11 12 9 -0.731 -0.349 5 ; URA1_RIB1_P2_GLF1
; 1  6 11 12 9 -159.36 0.357 6 ; URA1_RIB1_P2_GLF1
; 1  6 11 12 9 -148.326 0.136 7 ; URA1_RIB1_P2_GLF1
; 1  6 11 12 9 -148.496 0.189 8 ; URA1_RIB1_P2_GLF1
; 1  6 11 12 9 -142.964 0.14 9 ; URA1_RIB1_P2_GLF1

; URA2_RIB3_P2_GLF2
; 2  8 11 13 9 23.205 3 1 ; URA2_RIB3_P2_GLF2


[ exclusions ]
 1  2  3  4  5 
 2  3  4  5 
 3  4  5 
 4  5 
 9  6  7  8 
16 12 13 14 15 
11 12 13 14 15


; This file was generated using the following command:
; /home/chelsea/.local/bin/ff_inter -f mapped.xtc -s mapped.tpr -i UDPG.itp -dists -itp-only
; 

; Please cite the following papers:
; Kroon, P C; Grunewald, F; Barnoud, J; van Tilburg, M; Souza, P C; Wassenaar, T A; Marrink, S J;  elife 2024; 10.7554/elife.90627.2
; Brasnett, C; Grunewald, L; Wassenaar, T A; Marrink, S J; Grunewald, F;  2025; https://zenodo.org/badge/latestdoi/327071500

[ moleculetype ]
UDPG 1

[ atoms ]
 1 SN1   1 UDPG URA1  1  0.0 45.0
 2 TP1a  1 UDPG URA2  2  0.0 45.0
 3 TN5d  1 UDPG URA3  3  0.0  0.0
 4 TP1a  1 UDPG URA4  4  0.0 45.0
 5 TC5   1 UDPG URA5  5  0.0  0.0
 6 TC3   1 UDPG RIB1  6  0.0 54.0
 7 TP1   1 UDPG RIB2  7  0.0 54.0
 8 SN4ar 1 UDPG RIB3  8  0.0 54.0
 9 TC4   1 UDPG RIB4  9  0.0  0.0
10 Q5n   1 UDPG P1   10 -1.0 72.0
11 Q5n   1 UDPG P2   11 -1.0 72.0
12 SN6   1 UDPG GLC1 12  0.0     
13 SP4r  1 UDPG GLC2 13  0.0     
14 SP1r  1 UDPG GLC3 14  0.0     
15 TC4   1 UDPG GLC4 15  0.0  0.0

[ bonds ]
 1  6 b_URA1_RIB1   ; URA1_RIB1
 6  7 b_RIB1_RIB2   ; RIB1_RIB2
11 12 1 0.552 6850  ; P2_GLC1
12 13 1 0.312 3800  ; GLC1_GLC2
13 14 1 0.283 6500  ; GLC2_GLC3
12 14 1 0.419 18000 ; GLC1_GLC3

#ifdef FLEXIBLE
 6  8 b_RIB1_RIB3 ; RIB1_RIB3
 7  8 b_RIB2_RIB3 ; RIB2_RIB3
 8 10 b_RIB3_P1   ; RIB3_P1
10 11 b_P1_P2     ; P1_P2
#endif

[ constraints ]
 1  2 1 0.290   ; URA1_URA2
 1  4 1 0.374   ; URA1_URA4
 2  4 1 0.451   ; URA2_URA4

#ifndef FLEXIBLE
 6  8 c_RIB1_RIB3 ; RIB1_RIB3
 7  8 c_RIB2_RIB3 ; RIB2_RIB3
 8 10 c_RIB3_P1   ; RIB3_P1
10 11 c_P1_P2     ; P1_P2
#endif

[ angles ]
 2  1  6 a_URA2_URA1_RIB1 ; URA2_URA1_RIB1
 1  6  7 a_URA1_RIB1_RIB2 ; URA1_RIB1_RIB2
 1  6  8 a_URA1_RIB1_RIB3 ; URA1_RIB1_RIB3
 6  8 10 a_RIB1_RIB3_P1   ; RIB1_RIB3_P1
 8 10 11 a_RIB3_P1_P2     ; RIB3_P1_P2
10 11 12 10 98 75         ; P1_P2_GLC1
11 12 13 10 80 75         ; P2_GLC1_GLC2
11 12 14 10 30 200        ; P2_GLC1_GLC3

[ virtual_sitesn ]
 5 2  1  4
 3 2  2  4
 9 1  6  7  8
15 1 12 13 14

[ dihedrals ]
 1  2  4  5 2 0.0 100.0     ; URA1_URA2_URA4_URA5

 2  1  6  8 d_URA2_URA1_RIB1_RIB3_1 ; URA2_URA1_RIB1_RIB3
 2  1  6  8 d_URA2_URA1_RIB1_RIB3_2 ; URA2_URA1_RIB1_RIB3
 2  1  6  8 d_URA2_URA1_RIB1_RIB3_3 ; URA2_URA1_RIB1_RIB3
 2  1  6  8 d_URA2_URA1_RIB1_RIB3_4 ; URA2_URA1_RIB1_RIB3
 2  1  6  8 d_URA2_URA1_RIB1_RIB3_5 ; URA2_URA1_RIB1_RIB3

 1  6  7  8 d_URA1_RIB1_RIB2_RIB3   ; URA1_RIB1_RIB2_RIB3

 1  6  8 10 d_URA1_RIB1_RIB3_P1     ; URA1_RIB1_RIB3_P1
 6  8 10 11 d_RIB1_RIB3_P1_P2       ; RIB1_RIB3_P1_P2

; RIB3_P1_P2_GLC1
 8 10 11 12 2 0 6 ; RIB3_P1_P2_GLC1

[ exclusions ]
 1  2  3  4  5 
 2  3  4  5 
 3  4  5 
 4  5 
 9  6  7  8 
15 12 13 14 
11 12 13 14 15


; This file was generated using the following command:
; /coarse/chris/python_packages/fast_forward/.venv/bin/ff_inter -f mapped.xtc -s mapped.tpr -i DUDPH.itp -max-dihedral 5 -plots -itp-only -dists
; 

; Please cite the following papers:
; Kroon, P C; Grunewald, F; Barnoud, J; van Tilburg, M; Souza, P C; Wassenaar, T A; Marrink, S J;  elife 2024; 10.7554/elife.90627.2
; Brasnett, C; Grunewald, L; Wassenaar, T A; Marrink, S J; Grunewald, F;  2025; https://zenodo.org/badge/latestdoi/327071500

[ moleculetype ]
UDPH 1

[ atoms ]
 1 SN1   1 UDPH URA1  1  0.0 45.0
 2 TP1a  1 UDPH URA2  2  0.0 45.0
 3 TN5d  1 UDPH URA3  3  0.0  0.0
 4 TP1a  1 UDPH URA4  4  0.0 45.0
 5 TC5   1 UDPH URA5  5  0.0  0.0
 6 SN6   1 UDPH RIB1  6  0.0 54.0
 7 TP1   1 UDPH RIB2  7  0.0 54.0
 8 SN4ar 1 UDPH RIB3  8  0.0 54.0
 9 TC4   1 UDPH RIB4  9  0.0  0.0
10 Q5n   1 UDPH P1   10 -1.0 72.0
11 Q5n   1 UDPH P2   11 -1.0 72.0

[ bonds ]
 1  6 b_URA1_RIB1
 6  7 b_RIB1_RIB2

#ifdef FLEXIBLE
 6  8 b_RIB1_RIB3
 7  8 b_RIB2_RIB3
 8 10 b_RIB3_P1
10 11 b_H_P1_P2
#endif

[ constraints ]
 1  2 1 0.290
 1  4 1 0.374
 2  4 1 0.451

#ifndef FLEXIBLE
 6  8 c_RIB1_RIB3
 7  8 c_RIB2_RIB3
 8 10 c_RIB3_P1
10 11 c_H_P1_P2
#endif

[ angles ]
 2  1  6 a_URA2_URA1_RIB1
 1  6  7 a_URA1_RIB1_RIB2
 1  6  8 a_URA1_RIB1_RIB3
 8 10 11 a_RIB3_P1_P2
 6  8 10 a_RIB1_RIB3_P1

[ virtual_sitesn ]
 3 2  2  4
 5 2  1  4
 9 1  6  7  8

[ dihedrals ]
 1  2  4  5 2 0.0 100.0

 2  1  6  8 d_URA2_URA1_RIB1_RIB3_1
 2  1  6  8 d_URA2_URA1_RIB1_RIB3_2
 2  1  6  8 d_URA2_URA1_RIB1_RIB3_3
 2  1  6  8 d_URA2_URA1_RIB1_RIB3_4
 2  1  6  8 d_URA2_URA1_RIB1_RIB3_5

 1  6  7  8 d_URA1_RIB1_RIB2_RIB3

 1  6  8 10 d_URA1_RIB1_RIB3_P1
 6  8 10 11 d_RIB1_RIB3_P1_P2

[ exclusions ]
 1  2  3  4  5 
 2  3  4  5 
 3  4  5 
 4  5 
 9  6  7  8 


; This file was generated using the following command:
; /coarse/chris/python_packages/fast_forward/.venv/bin/ff_inter -f mapped.xtc -s mapped.tpr -i DUDP.itp -max-dihedral 5 -plots -itp-only -dists
; 

; Please cite the following papers:
; Kroon, P C; Grunewald, F; Barnoud, J; van Tilburg, M; Souza, P C; Wassenaar, T A; Marrink, S J;  elife 2024; 10.7554/elife.90627.2
; Brasnett, C; Grunewald, L; Wassenaar, T A; Marrink, S J; Grunewald, F;  2025; https://zenodo.org/badge/latestdoi/327071500

[ moleculetype ]
UDP 1

[ atoms ]
 1 SN1   1 UDP URA1  1  0.0 45.0
 2 TP1a  1 UDP URA2  2  0.0 45.0
 3 TN5d  1 UDP URA3  3  0.0  0.0
 4 TP1a  1 UDP URA4  4  0.0 45.0
 5 TC5   1 UDP URA5  5  0.0  0.0
 6 SN6   1 UDP RIB1  6  0.0 54.0
 7 TP1   1 UDP RIB2  7  0.0 54.0
 8 SN4ar 1 UDP RIB3  8  0.0 54.0
 9 TC4   1 UDP RIB4  9  0.0  0.0
10 Q5n   1 UDP P1   10 -1.0 72.0
11 D     1 UDP P2   11 -2.0 72.0

[ bonds ]
 1  6 b_URA1_RIB1
 6  7 b_RIB1_RIB2

#ifdef FLEXIBLE
 6  8 b_RIB1_RIB3
 7  8 b_RIB2_RIB3
 8 10 b_RIB3_P1
10 11 b_P1_P2
#endif

[ constraints ]
 1  2 1 0.290
 1  4 1 0.374
 2  4 1 0.451

#ifndef FLEXIBLE
 6  8 c_RIB1_RIB3
 7  8 c_RIB2_RIB3
 8 10 c_RIB3_P1
10 11 c_P1_P2
#endif

[ angles ]
 2  1  6 a_URA2_URA1_RIB1
 1  6  7 a_URA1_RIB1_RIB2
 1  6  8 a_URA1_RIB1_RIB3
 8 10 11 a_RIB3_P1_P2
 6  8 10 a_RIB1_RIB3_P1

[ virtual_sitesn ]
 3 2  2  4
 5 2  1  4
 9 1  6  7  8

[ dihedrals ]
 1  2  4  5 2 0.0 100.0

 2  1  6  8 d_URA2_URA1_RIB1_RIB3_1
 2  1  6  8 d_URA2_URA1_RIB1_RIB3_2
 2  1  6  8 d_URA2_URA1_RIB1_RIB3_3
 2  1  6  8 d_URA2_URA1_RIB1_RIB3_4
 2  1  6  8 d_URA2_URA1_RIB1_RIB3_5

 1  6  7  8 d_URA1_RIB1_RIB2_RIB3

 1  6  8 10 d_URA1_RIB1_RIB3_P1
 6  8 10 11 d_RIB1_RIB3_P1_P2

[ exclusions ]
 1  2  3  4  5 
 2  3  4  5 
 3  4  5 
 4  5 
 9  6  7  8 


; This file was generated using the following command:
; /coarse/chris/python_packages/fast_forward/.venv/bin/ff_inter -f mapped.xtc -s mapped.tpr -i DUMP.itp -max-dihedral 5 -plots -itp-only -dists
; 

; Please cite the following papers:
; Kroon, P C; Grunewald, F; Barnoud, J; van Tilburg, M; Souza, P C; Wassenaar, T A; Marrink, S J;  elife 2024; 10.7554/elife.90627.2
; Brasnett, C; Grunewald, L; Wassenaar, T A; Marrink, S J; Grunewald, F;  2025; https://zenodo.org/badge/latestdoi/327071500

[ moleculetype ]
UMP 1

[ atoms ]
 1 SN1   1 UMP URA1  1  0.0 45.0
 2 TP1a  1 UMP URA2  2  0.0 45.0
 3 TN5d  1 UMP URA3  3  0.0  0.0
 4 TP1a  1 UMP URA4  4  0.0 45.0
 5 TC5   1 UMP URA5  5  0.0  0.0
 6 SN6   1 UMP RIB1  6  0.0 54.0
 7 TP1   1 UMP RIB2  7  0.0 54.0
 8 SN4ar 1 UMP RIB3  8  0.0 54.0
 9 TC4   1 UMP RIB4  9  0.0  0.0
10 D     1 UMP P1   10 -2.0 72.0


[ bonds ]
 1  6 b_URA1_RIB1
 6  7 b_RIB1_RIB2

#ifdef FLEXIBLE
 6  8 b_RIB1_RIB3
 7  8 b_RIB2_RIB3
 8 10 b_RIB3_P1
#endif

[ constraints ]
 1  2 1 0.290
 1  4 1 0.374
 2  4 1 0.451

#ifndef FLEXIBLE
 6  8 c_RIB1_RIB3
 7  8 c_RIB2_RIB3
 8 10 c_RIB3_P1
#endif

[ angles ]
 2  1  6 a_URA2_URA1_RIB1
 1  6  7 a_URA1_RIB1_RIB2
 1  6  8 a_URA1_RIB1_RIB3
 6  8 10 a_RIB1_RIB3_P1

[ virtual_sitesn ]
 3 2  2  4
 5 2  1  4
 9 1  6  7  8

[ dihedrals ]
 1  2  4  5 2 0.0 100.0

 2  1  6  8 d_URA2_URA1_RIB1_RIB3_1
 2  1  6  8 d_URA2_URA1_RIB1_RIB3_2
 2  1  6  8 d_URA2_URA1_RIB1_RIB3_3
 2  1  6  8 d_URA2_URA1_RIB1_RIB3_4
 2  1  6  8 d_URA2_URA1_RIB1_RIB3_5

 1  6  7  8 d_URA1_RIB1_RIB2_RIB3

 1  6  8 10 d_URA1_RIB1_RIB3_P1

[ exclusions ]
 1  2  3  4  5 
 2  3  4  5 
 3  4  5 
 4  5 
 9  6  7  8 


; This file was generated using the following command:
; /coarse/chris/python_packages/fast_forward/.venv/bin/ff_inter -f mapped.xtc -s mapped.tpr -i DUTP.itp -max-dihedral 5 -plots -itp-only -dists
; 

; Please cite the following papers:
; Kroon, P C; Grunewald, F; Barnoud, J; van Tilburg, M; Souza, P C; Wassenaar, T A; Marrink, S J;  elife 2024; 10.7554/elife.90627.2
; Brasnett, C; Grunewald, L; Wassenaar, T A; Marrink, S J; Grunewald, F;  2025; https://zenodo.org/badge/latestdoi/327071500

[ moleculetype ]
URA 1

[ atoms ]
 1 SN1   1 URA URA1  1  0.0 45.0
 2 TP1a  1 URA URA2  2  0.0 45.0
 3 TN5d  1 URA URA3  3  0.0  0.0
 4 TP1a  1 URA URA4  4  0.0 45.0
 5 TC5   1 URA URA5  5  0.0  0.0

[ constraints ]
 1  2 1 0.290
 1  4 1 0.374
 2  4 1 0.451

[ virtual_sitesn ]
 3 2  2  4
 5 2  1  4

[ dihedrals ]
 1  2  4  5 2 0.0 100.0

[ exclusions ]
 1  2  3  4  5 
 2  3  4  5 
 3  4  5 
 4  5 


; This file was generated using the following command:
; /coarse/chris/python_packages/fast_forward/.venv/bin/ff_inter -f mapped.xtc -s mapped.tpr -i DURD.itp -max-dihedral 5 -plots -itp-only -dists
; 

; Please cite the following papers:
; Kroon, P C; Grunewald, F; Barnoud, J; van Tilburg, M; Souza, P C; Wassenaar, T A; Marrink, S J;  elife 2024; 10.7554/elife.90627.2
; Brasnett, C; Grunewald, L; Wassenaar, T A; Marrink, S J; Grunewald, F;  2025; https://zenodo.org/badge/latestdoi/327071500

[ moleculetype ]
URD 1

[ atoms ]
 1 SN1   1 URD URA1  1  0.0 45.0
 2 TP1a  1 URD URA2  2  0.0 45.0
 3 TN5d  1 URD URA3  3  0.0  0.0
 4 TP1a  1 URD URA4  4  0.0 45.0
 5 TC5   1 URD URA5  5  0.0  0.0
 6 SN6   1 URD RIB1  6  0.0 54.0
 7 TP1   1 URD RIB2  7  0.0 54.0
 8 SN4ar 1 URD RIB3  8  0.0 54.0
 9 TC4   1 URD RIB4  9  0.0  0.0

[ bonds ]
 1  6 b_URA1_RIB1
 6  7 b_RIB1_RIB2

#ifdef FLEXIBLE
 6  8 b_RIB1_RIB3
 7  8 b_RIB2_RIB3
#endif

[ constraints ]
 1  2 1 0.290
 1  4 1 0.374
 2  4 1 0.451

#ifndef FLEXIBLE
 6  8 c_RIB1_RIB3
 7  8 c_RIB2_RIB3
#endif

[ angles ]
 2  1  6 a_URA2_URA1_RIB1
 1  6  7 a_URA1_RIB1_RIB2
 1  6  8 a_URA1_RIB1_RIB3

[ virtual_sitesn ]
 3 2  2  4
 5 2  1  4
 9 1  6  7  8

[ dihedrals ]
 1  2  4  5 2 0.0 100.0

 2  1  6  8 d_URA2_URA1_RIB1_RIB3_1
 2  1  6  8 d_URA2_URA1_RIB1_RIB3_2
 2  1  6  8 d_URA2_URA1_RIB1_RIB3_3
 2  1  6  8 d_URA2_URA1_RIB1_RIB3_4
 2  1  6  8 d_URA2_URA1_RIB1_RIB3_5

 1  6  7  8 d_URA1_RIB1_RIB2_RIB3

[ exclusions ]
 1  2  3  4  5 
 2  3  4  5 
 3  4  5 
 4  5 
 9  6  7  8 


; This file was generated using the following command:
; /coarse/chris/python_packages/fast_forward/.venv/bin/ff_inter -f mapped.xtc -s mapped.tpr -i DUTPH.itp -max-dihedral 5 -plots -itp-only -dists
; 

; Please cite the following papers:
; Kroon, P C; Grunewald, F; Barnoud, J; van Tilburg, M; Souza, P C; Wassenaar, T A; Marrink, S J;  elife 2024; 10.7554/elife.90627.2
; Brasnett, C; Grunewald, L; Wassenaar, T A; Marrink, S J; Grunewald, F;  2025; https://zenodo.org/badge/latestdoi/327071500

[ moleculetype ]
UTPH 1

[ atoms ]
 1 SN1   1 UTPH URA1  1  0.0 45.0
 2 TP1a  1 UTPH URA2  2  0.0 45.0
 3 TN5d  1 UTPH URA3  3  0.0  0.0
 4 TP1a  1 UTPH URA4  4  0.0 45.0
 5 TC5   1 UTPH URA5  5  0.0  0.0
 6 SN6   1 UTPH RIB1  6  0.0 54.0
 7 TP1   1 UTPH RIB2  7  0.0 54.0
 8 SN4ar 1 UTPH RIB3  8  0.0 54.0
 9 TC4   1 UTPH RIB4  9  0.0  0.0
10 Q5n   1 UTPH P1   10 -1.0 72.0
11 Q5n   1 UTPH P2   11 -1.0 72.0
12 Q5n   1 UTPH P3   12 -1.0 72.0

[ bonds ]
 1  6 b_URA1_RIB1
 6  7 b_RIB1_RIB2

#ifdef FLEXIBLE
 6  8 b_RIB1_RIB3
 7  8 b_RIB2_RIB3
 8 10 b_RIB3_P1
10 11 b_H_P1_P2
11 12 b_H_P2_P3
#endif

[ constraints ]
 1  2 1 0.290
 1  4 1 0.374
 2  4 1 0.451

#ifndef FLEXIBLE
 6  8 c_RIB1_RIB3
 7  8 c_RIB2_RIB3
 8 10 c_RIB3_P1
10 11 c_H_P1_P2
11 12 c_H_P2_P3
#endif

[ angles ]
 2  1  6 a_URA2_URA1_RIB1
 1  6  7 a_URA1_RIB1_RIB2
 1  6  8 a_URA1_RIB1_RIB3
 8 10 11 a_RIB3_P1_P2
 6  8 10 a_RIB1_RIB3_P1
10 11 12 a_P1_P2_P3

[ virtual_sitesn ]
 3 2  2  4
 5 2  1  4
 9 1  6  7  8

[ dihedrals ]
 1  2  4  5 2 0.0 100.0

 2  1  6  8 d_URA2_URA1_RIB1_RIB3_1
 2  1  6  8 d_URA2_URA1_RIB1_RIB3_2
 2  1  6  8 d_URA2_URA1_RIB1_RIB3_3
 2  1  6  8 d_URA2_URA1_RIB1_RIB3_4
 2  1  6  8 d_URA2_URA1_RIB1_RIB3_5

 1  6  7  8 d_URA1_RIB1_RIB2_RIB3

 1  6  8 10 d_URA1_RIB1_RIB3_P1
 6  8 10 11 d_RIB1_RIB3_P1_P2
 8 10 11 12 d_RIB3_P1_P2_P3

[ exclusions ]
 1  2  3  4  5 
 2  3  4  5 
 3  4  5 
 4  5 
 9  6  7  8 


; This file was generated using the following command:
; /coarse/chris/python_packages/fast_forward/.venv/bin/ff_inter -f mapped.xtc -s mapped.tpr -i DUTP.itp -max-dihedral 5 -plots -itp-only -dists
; 

; Please cite the following papers:
; Kroon, P C; Grunewald, F; Barnoud, J; van Tilburg, M; Souza, P C; Wassenaar, T A; Marrink, S J;  elife 2024; 10.7554/elife.90627.2
; Brasnett, C; Grunewald, L; Wassenaar, T A; Marrink, S J; Grunewald, F;  2025; https://zenodo.org/badge/latestdoi/327071500

[ moleculetype ]
UTP 1

[ atoms ]
 1 SN1   1 UTP URA1  1  0.0 45.0
 2 TP1a  1 UTP URA2  2  0.0 45.0
 3 TN5d  1 UTP URA3  3  0.0  0.0
 4 TP1a  1 UTP URA4  4  0.0 45.0
 5 TC5   1 UTP URA5  5  0.0  0.0
 6 SN6   1 UTP RIB1  6  0.0 54.0
 7 TP1   1 UTP RIB2  7  0.0 54.0
 8 SN4ar 1 UTP RIB3  8  0.0 54.0
 9 TC4   1 UTP RIB4  9  0.0  0.0
10 Q5n   1 UTP P1   10 -1.0 72.0
11 Q5n   1 UTP P2   11 -1.0 72.0
12 D     1 UTP P3   12 -2.0 72.0

[ bonds ]
 1  6 b_URA1_RIB1
 6  7 b_RIB1_RIB2

#ifdef FLEXIBLE
 6  8 b_RIB1_RIB3
 7  8 b_RIB2_RIB3
 8 10 b_RIB3_P1
10 11 b_P1_P2
11 12 b_P2_P3
#endif

[ constraints ]
 1  2 1 0.290
 1  4 1 0.374
 2  4 1 0.451

#ifndef FLEXIBLE
 6  8 c_RIB1_RIB3
 7  8 c_RIB2_RIB3
 8 10 c_RIB3_P1
10 11 c_P1_P2
11 12 c_P2_P3
#endif

[ angles ]
 2  1  6 a_URA2_URA1_RIB1
 1  6  7 a_URA1_RIB1_RIB2
 1  6  8 a_URA1_RIB1_RIB3
 8 10 11 a_RIB3_P1_P2
 6  8 10 a_RIB1_RIB3_P1
10 11 12 a_P1_P2_P3

[ virtual_sitesn ]
 3 2  2  4
 5 2  1  4
 9 1  6  7  8

[ dihedrals ]
 1  2  4  5 2 0.0 100.0

 2  1  6  8 d_URA2_URA1_RIB1_RIB3_1
 2  1  6  8 d_URA2_URA1_RIB1_RIB3_2
 2  1  6  8 d_URA2_URA1_RIB1_RIB3_3
 2  1  6  8 d_URA2_URA1_RIB1_RIB3_4
 2  1  6  8 d_URA2_URA1_RIB1_RIB3_5

 1  6  7  8 d_URA1_RIB1_RIB2_RIB3

 1  6  8 10 d_URA1_RIB1_RIB3_P1
 6  8 10 11 d_RIB1_RIB3_P1_P2
 8 10 11 12 d_RIB3_P1_P2_P3

[ exclusions ]
 1  2  3  4  5 
 2  3  4  5 
 3  4  5 
 4  5 
 9  6  7  8 


;
; Topology prepared automatically using PyCGTOOL
; James Graham <J.A.Graham@soton.ac.uk> 2016
; University of Southampton
; https://github.com/jag1g13/pycgtool
;

[ moleculetype ]
X5P     1

[ atoms ]
   1 TP1     1 X5P  ALC1    1    0.000    36.0
   2 TN5a    1 X5P  CO1     2    0.000    36.0
   3 TP1     1 X5P  ALC2    3    0.000    36.0
   4 SP1     1 X5P  ALC3    4    0.000    54.0
   5 D       1 X5P  P1      5   -2.000

[ bonds ]
   3    4    1      0.258   9268 ; ALC2_ALC3
   4    5    1      0.356  15000 ; ALC3_P1
   1    2    1      0.218  20000 ; ALC1_CO1
   2    3    1      0.240  20000 ; CO1_ALC2

[ angles ]
   1    2    3    2     53    125 ; ALC1_CO1_ALC2
   2    3    4    2     75    200 ; CO1_ALC2_ALC3
   3    4    5    2     85    100 ; ALC2_ALC3_P1

[ dihedrals ]
   1    2    3    4    1     -3     10    1 ; ALC1_CO1_ALC2_ALC3
;   2    3    4    5    1     80     10    1 ; CO1_ALC2_ALC3_P1

[ exclusions ]
2 3 4
3 4
